<?xml version="1.0"?>
<VTKFile type="UnstructuredGrid" version="0.1" byte_order="LittleEndian" header_type="UInt32" compressor="vtkZLibDataCompressor">
  <UnstructuredGrid>
    <Piece NumberOfPoints="6405" NumberOfCells="4800">
      <PointData>
        <DataArray type="Float32" Name="DISPLACEMENT" NumberOfComponents="3" ComponentName0="X-DISPLACEMENT" ComponentName1="Y-DISPLACEMENT" ComponentName2="Z-DISPLACEMENT" format="ascii" RangeMin="0" RangeMax="234.86407122">
          0 0 0 0 0 0
          2.0877478123 -1.2157331705 -1.0095803738 0 0 0
          1.5556949377 -0.6763253212 -0.89490061998 0 0 0
          1.8920514584 -1.3168097734 -0.41550627351 1.3610073328 -0.7675063014 -0.36167496443
          0 0 0 3.7720298767 -1.8462216854 -1.0594011545
          0 0 0 3.7149763107 -1.9921594858 -0.55522787571
          3.1861689091 -1.3271743059 -0.92349845171 0 0 0
          0 0 0 1.8971984386 -1.3702517748 -1.2623651457e-07
          1.8548152447 -0.31764483452 -0.80033570528 1.3592475653 -0.8005040288 -4.7627821687e-09
          3.133723259 -1.4545851946 -0.47596904635 1.7462211847 -0.44793984294 -0.31461730599
          3.6734097004 -2.0381102562 -2.4802560006e-07 3.0268318653 -0.80535966158 -0.6888436079
          0 0 0 3.0925426483 -1.4992890358 -4.0552276204e-08
          2.9817330837 -0.95957040787 -0.36309942603 0 0 0
          5.4089794159 -2.7146890163 -1.0110561848 0 0 0
          1.7305542231 -0.45955705643 1.7221869086e-07 0 0 0
          0 0 0 1.8920514584 -1.3168100119 0.41550603509
          4.6397900581 -2.2647869587 -0.87001883984 5.4280133247 -2.8299114704 -0.51753604412
          2.8595364094 -0.45183846354 -0.2913787365 1.3610073328 -0.76750648022 0.36167496443
          4.6561665535 -2.3791534901 -0.44310620427 2.8631279469 -0.68707066774 -0.20559285581
          2.9460325241 -0.99154931307 1.8776137267e-07 3.7149763107 -1.9921598434 0.55522733927
          0 0 0 0 0 0
          2.8519730568 -0.48804351687 -0.34000092745 4.2016429901 -1.9085210562 -0.70953780413
          5.416990757 -2.8744306564 -3.9250170403e-07 3.133723259 -1.4545856714 0.47596895695
          4.1865987778 -2.0232012272 -0.36266764998 1.7462210655 -0.44794011116 0.31461763382
          4.648182869 -2.4182624817 -1.1456124582e-07 2.7997581959 -0.67583435774 -0.21979239583
          2.8148870468 -0.68693834543 4.3545986728e-07 0 0 0
          6.9188966751 -3.7970564365 -0.90696561337 0 0 0
          5.9589533806 -3.4112632275 -0.80595457554 2.9817330837 -0.9595708847 0.36309981346
          6.9625988007 -3.8825917244 -0.46119335294 2.0877478123 -1.2157336473 1.0095801353
          0 0 0 0 0 0
          2.7969632149 -0.71108114719 4.1485483848e-07 4.1828842163 -2.0613136292 1.7371012007e-07
          1.2855703831 -0.19282245636 -0.79233622551 5.9985370636 -3.4970908165 -0.40694308281
          1.5556949377 -0.67632579803 0.89490056038 3.5234262943 -1.5900560617 -0.5969235301
          0 0 0 5.4280133247 -2.8299119473 0.51753526926
          1.0999449492 -0.2104613781 -0.25616008043 3.4911170006 -1.6850770712 -0.28802287579
          4.6561665535 -2.3791539669 0.44310599566 2.8631277084 -0.68707096577 0.20559370518
          5.2235250473 -3.1443529129 -0.72042447329 2.8687975407 -0.85531282425 -0.93055856228
          6.9657306671 -3.9148395061 -5.535707146e-07 3.7720298767 -1.8462224007 1.0594006777
          0 0 0 0 0 0
          5.2439470291 -3.2343730927 -0.3609251976 3.1861686707 -1.3271751404 0.9234983325
          6.0055632591 -3.531090498 -2.1518981441e-07 2.7989971638 -0.83037185669 -0.30709263682
          1.8548150063 -0.31764543056 0.80033606291 1.116549015 -0.25506338477 2.8683840014e-07
          3.5037779808 -1.7231024504 4.6849982027e-07 4.1865983009 -2.0232019424 0.36266797781
          2.7997579575 -0.67583483458 0.2197932303 5.2454185486 -3.2708210945 1.3197482929e-07
          3.0268318653 -0.80536055565 0.68884396553 2.622702837 -0.97780430317 5.2860553978e-07
          4.7768836021 -2.9759638309 -0.63148325682 6.9625988007 -3.8825922012 0.46119222045
          5.4089794159 -2.71468997 1.0110553503 0 0 0
          8.2949914932 -4.9881820679 -0.81908178329 0 0 0
          0 0 0 4.6069364548 -2.0040314198 -0.60376316309
          4.7962837219 -3.0914998055 -0.28232386708 8.339430809 -5.0550618172 -0.41352167726
          7.1791987419 -4.6192688942 -0.73503190279 5.9985370636 -3.4970915318 0.40694263577
          1.0278645754 -0.052992727607 -0.66125392914 0 0 0
          4.6397895813 -2.2647881508 0.87001860142 2.8595359325 -0.4518391788 0.29137960076
          4.7195453644 -2.1829855442 -0.006173254922 1.0999449492 -0.21046164632 0.25616064668
          0.89375060797 -0.11476243287 -0.27668267488 3.4911167622 -1.6850776672 0.28802382946
          7.2218136787 -4.6918139458 -0.37038251758 5.2439470291 -3.2343738079 0.36092546582
          4.7866806984 -3.1218469143 5.3151910606e-07 8.3490657806 -5.0803480148 -7.2574835031e-07
          1.9356384277 -0.60101246834 -0.6899510622 2.7989971638 -0.83037227392 0.30709370971
          0 0 0 6.2756643295 -4.2884020805 -0.64337593317
          2.8519728184 -0.48804444075 0.34000179172 4.2016429901 -1.9085222483 0.70953816175
          3.4156153202 -1.5565605164 7.5328171079e-07 7.2320899963 -4.7191257477 -3.3902807672e-07
          0.87911200523 -0.11786618084 2.5282983529e-07 1.8941944838 -0.65935903788 -0.35112830997
          6.3120541573 -4.3737316132 -0.32249462605 6.9188961983 -3.7970576286 0.90696448088
          0 0 0 4.9276714325 -3.0902004242 -0.21811673045
          5.9589529037 -3.411264658 0.8059540987 1.8548482656 -0.70817732811 5.4060325283e-07
          4.9288129807 -3.2813036442 -0.1440808028 6.3192791939 -4.4007077217 5.8420809523e-08
          1.2855706215 -0.19282284379 0.79233676195 4.7962837219 -3.0915005207 0.28232493997
          5.6421003342 -3.9991395473 -0.48536780477 8.339430809 -5.0550627708 0.41352021694
          2.7868983746 -1.7864625454 -0.51222980022 3.5234260559 -1.590057373 0.59692448378
          0 0 0 4.7195453644 -2.1829864979 0.0061749746092
          5.6391215324 -4.103867054 -0.24833570421 0.89375072718 -0.11476259679 0.27668315172
          2.7547831535 -1.743490696 -0.33534449339 7.2218136787 -4.6918148994 0.37038183212
          5.2235245705 -3.1443543434 0.7204247117 2.8687977791 -0.8553134799 0.93055963516
          9.5759820938 -6.2624545097 -0.75556200743 0 0 0
          4.9127039909 -3.2932779789 1.0037209677e-06 8.3415470123 -5.906768322 -0.67834073305
          9.6123504639 -6.3218855858 -0.37954565883 0 0 0
          0.71510779858 -0.029904402792 -0.50090360641 8.3769617081 -5.9717068672 -0.3396101594
          5.6140084267 -4.1079468727 4.8131761332e-07 0.60550802946 -0.10826295614 -0.21032734215
          1.8941947222 -0.6593593359 0.35112941265 2.8884704113 -1.6281173229 8.1730649981e-07
          6.3120541573 -4.3737325668 0.32249474525 7.2911787033 -5.5967502594 -0.59135007858
          1.3210675716 -0.57108002901 -0.55766820908 9.6226587296 -6.3435974121 -9.080140444e-07
          0 0 0 1.305010438 -0.65250444412 -0.28902232647
          7.3171648979 -5.6695480347 -0.29526650906 8.3883581161 -5.9951100349 -4.852494726e-07
          0.60748958588 -0.12158687413 2.3071723376e-07 4.7768831253 -2.9759652615 0.6314843297
          4.9594688416 -3.76273036 -0.26709312201 8.2949914932 -4.9881834984 0.81908029318
          0 0 0 3.815404892 -2.9814391136 -0.42734703422
          4.9288129807 -3.2813043594 0.14408279955 4.6069359779 -2.0040328503 0.60376495123
          7.1791982651 -4.6192703247 0.73503124714 1.027864933 -0.052992958575 0.66125446558
          3.7772202492 -2.9844381809 -0.16633164883 4.9087576866 -3.8992555141 -0.13969144225
          5.6391215324 -4.1038680077 0.24833667278 2.7547836304 -1.7434914112 0.33534613252
          7.3226027489 -5.6941399574 -5.5099953045e-08 1.2983138561 -0.65739327669 5.3190257177e-07
          6.3923430443 -5.3940844536 -0.49084326625 1.9810004234 -1.501935482 -0.50293081999
          1.9356390238 -0.60101300478 0.68995219469 9.6123504639 -6.3218865395 0.37954384089
          6.2756638527 -4.288403511 0.64337605238 0 0 0
          4.8831925392 -3.9386665821 9.1205703256e-07 3.6016101837 -2.9099740982 6.1973878474e-07
          6.3995885849 -5.4552550316 -0.23551493883 8.3769607544 -5.9717073441 0.33960920572
          2.0218105316 -1.5535855293 -0.25510662794 0.60550814867 -0.1082630381 0.21032778919
          4.9276709557 -3.0902020931 0.21811872721 6.4256463051 -5.4671726227 3.9873552282e-07
          7.3171648979 -5.6695489883 0.29526638985 1.3050106764 -0.65250462294 0.28902339935
          1.9922398329 -1.5648608208 8.342763067e-07 10.786906242 -7.6362862587 -0.71174645424
          0 0 0 10.814949989 -7.693005085 -0.35625508428
          5.6420998573 -3.9991412163 0.48536875844 9.431558609 -7.3048605919 -0.63707751036
          2.7868995667 -1.7864633799 0.51223140955 4.8969521523 -4.1126642227 -0.4425419271
          0.48952034116 -0.059811402112 -0.35160428286 3.7772221565 -2.9844386578 0.16633364558
          4.9087572098 -3.8992562294 0.13969327509 0 0 0
          9.45844841 -7.3647584915 -0.31808042526 4.8173618317 -4.093629837 -0.05498830229
          0.40978351235 -0.13577736914 -0.14717254043 5.645617485 -5.3446297646 -0.44405958056
          2.685403347 -2.6238758564 -0.39546275139 9.5759811401 -6.2624564171 0.75556015968
          0 0 0 8.3415460587 -5.9067702293 0.67833971977
          10.824263573 -7.7129468918 -1.100519853e-06 2.710776329 -2.6550676823 -0.20647525787
          5.5082368851 -5.3389987946 -0.19871011376 0.71510821581 -0.029904518276 0.50090414286
          8.2136268616 -7.0309300423 -0.55994731188 0.91590440273 -0.54750919342 -0.39763820171
          0 0 0 6.3995881081 -5.4552559853 0.23551572859
          2.0218112469 -1.5535857677 0.25510832667 9.4671964645 -7.3859548569 -6.529435268e-07
          4.2438855171 -4.0654826164 1.2648366692e-06 8.2376785278 -7.0936203003 -0.28058704734
          0.89440566301 -0.63707667589 -0.20807081461 0.41119453311 -0.14712570608 2.1740338241e-07
          7.2911782265 -5.5967521667 0.59134995937 1.3210682869 -0.57108026743 0.55766928196
          5.2791223526 -5.2288584709 8.689975175e-07 2.7042603493 -2.6850538254 1.1954048205e-06
          4.9594683647 -3.762732029 0.26709496975 8.2466726303 -7.1156086922 -1.9776378224e-07
          0.878916502 -0.65895247459 5.2294672059e-07 3.8154067993 -2.9814403057 0.42734986544
          10.814949989 -7.6930060387 0.3562528789 7.1204404831 -6.8237514496 -0.48725047708
          0 0 0 1.3632137775 -1.3737199306 -0.36710008979
          7.1267113686 -6.9004650116 -0.24939864874 9.45844841 -7.3647589684 0.31807911396
          0.40978363156 -0.13577738404 0.14717297256 4.8173675537 -4.0936341286 0.054990515113
          1.3815644979 -1.4576282501 -0.19361370802 6.3923425674 -5.3940863609 0.49084404111
          5.0192465782 -5.4648504257 -0.31876954436 5.5082364082 -5.3389997482 0.198711887
          1.9810014963 -1.5019358397 0.50293248892 2.7107768059 -2.6550681591 0.20647759736
          3.2787344456 -3.9355785847 -0.31659156084 5.1678705215 -5.5101881027 -0.25913718343
          7.1244001389 -6.9403104782 2.7925722179e-07 8.2376775742 -7.093621254 0.28058665991
          0.89440590143 -0.6370767355 0.20807185769 3.2859597206 -3.9317634106 -0.19148661196
          1.3836457729 -1.479654789 8.8227108108e-07 11.936932564 -9.1160917282 -0.68031412363
          0 0 0 0.30777728558 -0.085312329233 -0.22013172507
          4.7744517326 -5.1956677437 1.7702561763e-06 6.145635128 -6.6515245438 -0.40493935347
          10.454362869 -8.8034791946 -0.6049580574 10.786906242 -7.6362876892 0.71174418926
          0 0 0 0 0 0
          3.3356597424 -3.8972668648 1.8055773126e-06 1.8244988918 -2.4572095871 -0.3163831532
          11.95823288 -9.172873497 -0.34021040797 6.1693458557 -6.7733564377 -0.23582044244
          10.475940704 -8.8622255325 -0.30213949084 9.4315576553 -7.3048620224 0.63707613945
          0.25577437878 -0.15655890107 -0.091788008809 4.8969550133 -4.1126680374 0.44254407287
          0.48952075839 -0.059811405838 0.3516048193 1.8610049486 -2.5232112408 -0.1630268693
          7.1267108917 -6.9004659653 0.24939920008 1.3815648556 -1.4576282501 0.19361545146
          9.0783033371 -8.5463609695 -0.52856606245 5.6456170082 -5.3446316719 0.4440613687
          2.6854043007 -2.6238768101 0.39546501637 0 0 0
          0.57312107086 -0.54366993904 -0.25165510178 11.965805054 -9.192284584 -1.3031019535e-06
          0.2550111711 -0.17027527094 1.9837057152e-07 6.158188343 -6.8466615677 8.0756819898e-07
          9.09902668 -8.6081733704 -0.26465547085 8.2136259079 -7.0309319496 0.55994689465
          10.483155251 -8.8823814392 -8.401678997e-07 0.91590505838 -0.54750925303 0.39763924479
          1.8716119528 -2.537624836 1.2887787761e-06 0.55714774132 -0.63333624601 -0.13054400682
          5.1678700447 -5.5101890564 0.25914010406 3.2859597206 -3.9317653179 0.19148980081
          3.8825864792 -5.3207626343 -0.26327452064 9.104180336 -8.6308336258 -3.672999469e-07
          0.54856193066 -0.65807932615 4.8718163725e-07 3.8423633575 -5.3272485733 -0.14005833864
          7.8207640648 -8.3527526855 -0.4506906569 0 0 0
          0.85075032711 -1.3199115992 -0.23738996685 11.95823288 -9.1728744507 0.34020778537
          0.25577446818 -0.15655887127 0.09178841114 6.1693453789 -6.7733573914 0.23582206666
          7.8371119499 -8.4174880981 -0.22657494247 7.1204400063 -6.8237533569 0.48725101352
          10.475940704 -8.8622264862 0.30213782191 5.0429606438 -6.4811062813 -0.20408429205
          2.2885210514 -3.7196807861 -0.26448896527 1.3632144928 -1.3737200499 0.36710175872
          0.86236894131 -1.4082666636 -0.12305594236 1.861005187 -2.5232114792 0.16302937269
          5.1878795624 -6.6864280701 -0.11640471965 2.3230757713 -3.7696831226 -0.1343639493
          3.8384678364 -5.2714905739 1.8983805603e-06 5.0192461014 -5.4648528099 0.31877246499
          9.0990257263 -8.608174324 0.26465475559 3.2787353992 -3.9355812073 0.31659391522
          7.8357067108 -8.4396390915 1.2742938793e-07 0.55714792013 -0.63333624601 0.1305449754
          0.86250543594 -1.4336613417 8.3409179297e-07 5.4987769127 -7.0071597099 1.3891630033e-06
          2.3257296085 -3.7784771919 1.7095901512e-06 1.1475610733 -2.3535130024 -0.20439700782
          6.6553435326 -8.2431249619 -0.35075572133 11.93693161 -9.1160936356 0.68031150103
          0 0 0 3.8423643112 -5.3272504807 0.14006200433
          0.30777767301 -0.085312247276 0.22013218701 1.169331789 -2.431098938 -0.10590525717
          6.1456346512 -6.6515269279 0.40494096279 10.454361916 -8.803481102 0.60495638847
          6.6863484383 -8.2970161438 -0.16362655163 13.043321609 -10.699743271 -0.65963035822
          0 0 0 1.8244996071 -2.4572100639 0.31638550758
          13.059825897 -10.759652138 -0.32928389311 0.14407141507 -0.10166750848 -0.10307211429
          11.428654671 -10.398578644 -0.57891941071 7.8371114731 -8.4174890518 0.22657519579
          0 0 0 0.86236917973 -1.4082666636 0.12305758893
          11.445430756 -10.459239006 -0.28874778748 0.11965902895 -0.16873826087 -0.042727358639
          5.1878790855 -6.6864290237 0.11640748382 2.3230760098 -3.7696838379 0.13436722755
          9.0783023834 -8.5463628769 0.52856528759 1.1744645834 -2.4539256096 1.2161723362e-06
          6.7075300217 -8.2973957062 6.4909880848e-07 0.57312166691 -0.54366981983 0.25165608525
          4.4871358871 -6.7447371483 -0.23287209868 0.2682030797 -0.54667073488 -0.11761078238
          9.8947820663 -10.157927513 -0.49661061168 2.7144193649 -5.1033139229 -0.20846375823
          13.066480637 -10.779580116 -1.5151341586e-06 0 0 0
          4.3898458481 -6.8036999702 0.023824242875 11.450588226 -10.478944778 -1.0450678474e-06
          0.11943038553 -0.1827160269 1.6566302463e-07 9.9123754501 -10.218402863 -0.24628955126
          0.26105502248 -0.63257080317 -0.060759417713 2.7374811172 -5.1461839676 -0.10392389446
          3.8825876713 -5.3207650185 0.26327753067 4.1269993782 -6.7542462349 1.8678414335e-06
          1.4444693327 -3.5854940414 -0.16993676126 1.1693320274 -2.431098938 0.10590764135
          5.5755634308 -8.2309656143 -0.28121256828 9.9151964188 -10.237713814 -5.656115718e-07
          7.8207631111 -8.3527555466 0.45069092512 6.6863479614 -8.2970170975 0.16362786293
          2.7299060822 -5.1651062965 2.0099403173e-06 0.2569078207 -0.65751582384 4.1264732431e-07
          0.85075098276 -1.3199114799 0.23739156127 13.059825897 -10.759653091 0.32928088307
          8.4709768295 -9.9931316376 -0.41354528069 1.4669775963 -3.6517059803 -0.087772540748
          0.39992961287 -1.2919864655 -0.10997813195 5.5205354691 -8.240026474 -0.092586755753
          5.0429601669 -6.4811086655 0.20408707857 2.2885217667 -3.7196817398 0.2644919157
          0 0 0 0.40587040782 -1.379799962 -0.056981500238
          11.445430756 -10.45923996 0.28874570131 0.11965910345 -0.16873820126 0.042727693915
          8.4897432327 -10.049354553 -0.20394255221 1.4736441374 -3.6722605228 1.5905649207e-06
          5.4352574348 -8.1417980194 1.2378678775e-06 4.3898453712 -6.8037014008 -0.023820284754
          8.4928970337 -10.065875053 -6.1287209974e-08 0.40619412065 -1.4064606428 7.1241601063e-07
          9.9123744965 -10.218403816 0.24628841877 0.26105520129 -0.63257074356 0.060760248452
          2.7374813557 -5.1461849213 0.10392774642 1.1475616693 -2.3535130024 0.204399243
          6.6553425789 -8.2431268692 0.35075703263 7.1645236015 -9.8920431137 -0.34068828821
          13.043320656 -10.699745178 0.65962731838 0 0 0
          0.54270654917 -2.2936015129 -0.093405291438 0.14407172799 -0.10166736692 0.10307250917
          11.428653717 -10.398580551 0.57891732454 1.4669778347 -3.6517064571 0.08777564019
          5.5205349922 -8.2400274277 0.092589251697 7.1701846123 -9.9493026733 -0.16596852243
          3.0603652 -6.658000946 -0.15663534403 0.55413067341 -2.3740808964 -0.047972183675
          0.40587061644 -1.379799962 0.056982912123 8.4897422791 -10.049355507 0.203942433
          3.0756471157 -6.6620893478 -0.10091288388 4.5507764816 -8.3391504288 -0.18681788445
          1.7213088274 -4.9807739258 -0.14171183109 14.129380226 -12.400641441 -0.64600789547
          0 0 0 12.368904114 -12.100805283 -0.55837863684
          4.4871354103 -6.7447400093 0.2328761965 0.26820358634 -0.54667049646 0.11761161685
          9.8947811127 -10.15792942 0.49660944939 1.7430154085 -5.0326743126 -0.072286568582
          4.6045613289 -8.3653030396 -0.14217938483 2.7144200802 -5.1033153534 0.2084672749
          14.141569138 -12.464687347 -0.32187479734 0 0 0
          0.55708247423 -2.3996670246 1.0363245337e-06 7.1719269753 -9.9706478119 4.7402281211e-07
          -0.010410760529 -0.1078588739 0.0064860917628 12.382648468 -12.165008545 -0.27734440565
          -0.008128686808 -0.17277596891 0.0026433542371 3.1000788212 -6.6383810043 2.0835868781e-06
          10.665397644 -11.86973381 -0.46660900116 1.7527852058 -5.046066761 1.9185670226e-06
          4.5257606506 -8.2390804291 1.5926040078e-06 14.146309853 -12.485405922 -1.7318752725e-06
          0 0 0 -0.019416559488 -0.5462026 0.0093785542995
          10.677060127 -11.927408218 -0.23092804849 12.387453079 -12.185020447 -1.2643855598e-06
          1.4444699287 -3.5854942799 0.16993963718 5.5755629539 -8.2309684753 0.28121510148
          -0.0078273871914 -0.1866351068 1.1923327747e-07 -0.016845554113 -0.63002896309 0.0047306441702
          8.4709758759 -9.9931335449 0.41354513168 0.39993020892 -1.291986227 0.10997949541
          0.68943321705 -3.505841732 -0.076289586723 5.9512519836 -9.8143415451 -0.26947888732
          0.55413091183 -2.3740808964 0.047974225134 7.1701841354 -9.949303627 0.1659694612
          0.7017454505 -3.5757627487 -0.038791574538 5.9445738792 -9.8962221146 -0.14975677431
          3.0756475925 -6.6620903015 0.1009170711 10.676718712 -11.94047451 -7.9012602328e-07
          -0.01592986472 -0.65475827456 3.0522846828e-07 9.0765924454 -11.721279144 -0.37863320112
          1.7430156469 -5.0326747894 0.072290316224 4.6045613289 -8.3653039932 0.1421829164
          14.141569138 -12.464688301 0.32187134027 0 0 0
          -0.025268889964 -1.276815176 0.012757158838 9.0777788162 -11.773714066 -0.180857867
          12.382647514 -12.165009499 0.27734187245 -0.022515859455 -1.3635892868 0.0064395121299
          0.70585846901 -3.5980393887 1.363537308e-06 5.9207816124 -9.9422445297 1.02498052e-06
          -0.0081286188215 -0.1727758944 -0.0026431111619 10.677059174 -11.927409172 0.23092646897
          9.0648736954 -11.789575577 -3.0875673929e-07 -0.021581845358 -1.390439868 5.3334645145e-07
          7.164522171 -9.8920450211 0.34068921208 3.4170479774 -8.2740926743 -0.12390904874
          -0.016845412552 -0.63002884388 -0.0047300262377 0.54270714521 -2.2936012745 0.093407228589
          1.9807174206 -6.5060014725 -0.11892457306 3.390542984 -8.2796821594 -0.076782539487
          3.0603659153 -6.6580023766 0.15663926303 1.9954565763 -6.5448946953 -0.059987720102
          0.70174562931 -3.5757627487 0.038794245571 5.9445734024 -9.8962230682 0.14975881577
          4.5507760048 -8.3391532898 0.18682171404 1.7213093042 -4.9807744026 0.14171525836
          -0.026557743549 -2.2624716759 0.016417253762 7.6476202011 -11.638491631 -0.31942668557
          14.129380226 -12.400643349 0.6460044384 0 0 0
          12.36890316 -12.10080719 0.55837607384 -0.023960070685 -2.3429791927 0.0082351863384
          3.3791651726 -8.2463884354 2.4691951239e-06 0.83320403099 -4.8882927895 -0.061029203236
          4.5731577873 -9.6951770782 -0.1440127939 7.6425356865 -11.681926727 -0.15166956186
          -0.010410510004 -0.10785868764 -0.0064857932739 1.9969484806 -6.5550222397 2.2194833491e-06
          9.0777788162 -11.773715019 0.18085727096 -0.022515680641 -1.3635891676 -0.0064384518191
          4.647544384 -9.8422241211 -0.064679905772 0.84370261431 -4.9475636482 -0.031454585493
          10.66539669 -11.869734764 0.46660742164 -0.02314658463 -2.3688714504 7.8069359688e-07
          7.6305384636 -11.697189331 2.3663587001e-07 -0.019416149706 -0.54620224237 -0.0093779200688
          4.8480677605 -10.074260712 1.6360902464e-06 15.204298973 -14.245974541 -0.63443207741
          0 0 0 0.84683889151 -4.9662432671 1.6722503915e-06
          15.213728905 -14.31129837 -0.31510156393 0 0 0
          3.390542984 -8.2796859741 0.076786644757 13.297636032 -13.943547249 -0.54205620289
          0.68943375349 -3.5058414936 0.076292082667 5.9512505531 -9.8143434525 0.26948094368
          -0.16346234083 -0.10425896198 0.11438480765 1.9954564571 -6.544895649 0.059991970658
          13.305991173 -14.009086609 -0.27057468891 -0.1347476691 -0.16956821084 0.047257699072
          9.0765914917 -11.721281052 0.37863260508 15.216697693 -14.331644058 -1.9449223601e-06
          -0.023959890008 -2.3429791927 -0.0082336449996 11.407094002 -13.681464195 -0.44799715281
          -0.30493372679 -0.54088664055 0.1347617656 7.6425352097 -11.681927681 0.1516700238
          0 0 0 6.303674221 -11.617602348 -0.25965178013
          -0.023384695873 -3.4615793228 0.019637638703 -0.025268398225 -1.2768146992 -0.012756118551
          -0.29238465428 -0.62505912781 0.069296278059 11.418878555 -13.745221138 -0.21903884411
          13.308121681 -14.029327393 -1.4832548914e-06 4.6475448608 -9.8422260284 0.06468308717
          -0.021393192932 -3.5326890945 0.0098626771942 6.2959733009 -11.624263763 -0.10820943862
          0.84370261431 -4.9475636482 0.031457845122 -0.1337902993 -0.18337115645 6.3472768375e-08
          2.2135856152 -8.1383714676 -0.099204726517 11.427326202 -13.762663841 -1.0363338561e-06
          3.4170486927 -8.2740983963 0.12391279638 -0.28642234206 -0.64976418018 1.7769315264e-07
          -0.020719623193 -3.5558214188 1.0283163192e-06 2.2138442993 -8.1724205017 -0.046835690737
          6.2916107178 -11.594756126 8.4288848257e-07 1.9807173014 -6.5060024261 0.11892843246
          15.213728905 -14.311299324 0.31509765983 9.6207332611 -13.548110008 -0.34603735805
          0.96683603525 -6.4097604752 -0.048533346504 0 0 0
          -0.44761174917 -1.2701411247 0.13465221226 3.7623214722 -9.9723234177 -0.21131795645
          -0.44760736823 -1.3570421934 0.069158732891 9.5842552185 -13.581305504 -0.18105143309
          13.305990219 -14.009087563 0.27057173848 0.97434991598 -6.4605574608 -0.025228140876
          3.6582136154 -9.9972791672 0.05390323326 -0.1347476095 -0.16956812143 -0.047257564962
          -0.026557242498 -2.262471199 -0.016415774822 7.6476187706 -11.638493538 0.3194271028
          2.2135736942 -8.1740293503 2.6331447316e-06 0.83320432901 -4.8882927895 0.061032224447
          4.5731582642 -9.6951808929 0.14401644468 9.53170681 -13.576637268 -5.7674009213e-07
          11.418877602 -13.745222092 0.21903678775 0.97744578123 -6.4755363464 1.97338818e-06
          -0.29238453507 -0.6250590086 -0.069295912981 -0.44593381882 -1.3836655617 3.2307099218e-07
          -0.021393058822 -3.5326888561 -0.0098606552929 6.2959723473 -11.624263763 0.10821104795
          3.5996527672 -9.9221858978 2.8122326512e-06 5.0436620712 -11.686414719 -0.23186531663
          -0.016741923988 -4.8356976509 0.021822208539 4.9240374565 -11.623648643 -0.064297892153
          -0.015562698245 -4.8972840309 0.01094962284 15.204298019 -14.245976448 0.63442820311
          0 0 0 2.2138440609 -8.1724224091 0.046840619296
          -0.59253650904 -2.2534704208 0.12594345212 8.099193573 -13.478462219 -0.31299811602
          -0.59833967686 -2.3339807987 0.0642478019 13.297635078 -13.943549156 0.54205328226
          -0.16346216202 -0.10425876826 -0.11438462883 8.087064743 -13.4920187 -0.16094893217
          9.5842542648 -13.581306458 0.18105025589 0.97434979677 -6.4605579376 0.025231957436
          -0.44760724902 -1.3570420742 -0.069158084691 3.6582100391 -9.9972801208 -0.053897317499
          4.7755327225 -11.480000496 1.4281927179e-06 -0.015149750747 -4.9172067642 1.2626856005e-06
          11.407094002 -13.681466103 0.44799512625 -0.30493342876 -0.54088628292 -0.13476137817
          6.3036727905 -11.617604256 0.25965318084 -0.59936398268 -2.3598747253 4.8122518592e-07
          -0.02338427119 -3.4615786076 -0.019635720178 8.0715084076 -13.481328964 -7.2135229345e-08
          16.262611389 -16.257989883 -0.61785614491 0 0 0
          2.2135853767 -8.1383733749 0.099208667874 4.9240365028 -11.623648643 0.06430067122
          0 0 0 14.212055206 -15.960432053 -0.53469496965
          1.0860882998 -8.0508298874 -0.039728071541 -0.01556265261 -4.8972840309 -0.010947149247
          -0.32192924619 -0.092418029904 0.22607025504 2.4191846848 -9.9029026031 -0.080147258937
          16.26981926 -16.317241669 -0.30714049935 9.6207323074 -13.548110962 0.34603613615
          14.217198372 -16.019863129 -0.26721277833 -0.26635125279 -0.16025917232 0.093663111329
          0.96683609486 -6.4097604752 0.048536811024 1.0906875134 -8.0936431885 -0.023064292967
          -0.44761139154 -1.2701406479 -0.13465155661 6.6923351288 -13.417121887 -0.27251148224
          -0.59833955765 -2.3339805603 -0.064246840775 3.7623164654 -9.972325325 0.21132053435
          -0.73271584511 -3.4501433372 0.11594880372 8.087064743 -13.492019653 0.16094869375
          2.4016530514 -9.90147686 -0.072926737368 -0.74084842205 -3.5207767487 0.058488536626
          6.675614357 -13.415230751 -0.12287148833 12.204259872 -15.681895256 -0.44880148768
          16.269794464 -16.335790634 -2.1374139578e-06 -0.60216414928 -0.53306609392 0.26362451911
          0 0 0 12.195669174 -15.748503685 -0.22536453605
          -0.58005177975 -0.61952668428 0.13602556288 14.219614029 -16.038375854 -1.6852839053e-06
          3.8883304596 -11.786783218 -0.22192375362 1.0924512148 -8.1057348251 2.2218805498e-06
          2.393260479 -9.8842973709 2.2290280413e-06 -0.0074527570978 -6.3540210724 0.022929599509
          -0.26492276788 -0.17394024134 4.5405381677e-09 3.9047150612 -11.789028168 -0.11088422686
          6.6769151688 -13.39095974 3.9762932147e-07 -0.006866144482 -6.4065666199 0.011165607721
          -0.74389231205 -3.5435099602 6.3316849719e-07 5.0436606407 -11.686415672 0.23186732829
          12.192186356 -15.770915985 -1.2577467032e-06 -0.016741661355 -4.8356971741 -0.021819891408
          -0.56904679537 -0.64408296347 4.431411682e-08 10.021608353 -15.415364265 -0.33585223556
          16.26981926 -16.317241669 0.30713623762 3.8374149799 -11.697774887 1.0035666946e-06
          -0.88780242205 -1.2745572329 0.25885289907 -0.59253615141 -2.253469944 -0.12594251335
          -0.0065059950575 -6.4234056473 1.473801035e-06 8.0991916656 -13.478464127 0.31299772859
          0 0 0 10.037831306 -15.49358654 -0.19049663842
          -0.89154702425 -1.3621212244 0.13339051604 14.217197418 -16.019863129 0.26720941067
          1.0906872749 -8.0936441422 0.023068591952 2.4016530514 -9.9014787674 0.072931669652
          -0.26635122299 -0.16025909781 -0.093663096428 6.6756134033 -13.415231705 0.12287223339
          -0.74084830284 -3.5207767487 -0.058487281203 12.195668221 -15.748504639 0.22536204755
          10.068603516 -15.537599564 -8.2459274608e-07 5.3320422173 -13.408903122 -0.2509509027
          -0.86445939541 -4.8220114708 0.105097875 -0.8893635869 -1.3883887529 1.0659456962e-07
          -0.58005172014 -0.61952650547 -0.13602545857 -0.87292188406 -4.8819160461 0.053267005831
          3.9047091007 -11.789025307 0.11088728905 5.2202420235 -13.378930092 -0.12164936215
          -0.0068662362173 -6.4065666199 -0.011162733659 8.5290241241 -15.31313324 -0.32611089945
          16.262611389 -16.257991791 0.61785185337 0 0 0
          -1.1839026213 -2.2709069252 0.23691147566 8.583316803 -15.34752655 -0.15014892817
          14.212054253 -15.960433006 0.53469163179 -1.1988438368 -2.350259304 0.12077219039