<?xml version="1.0"?>
<VTKFile type="UnstructuredGrid" version="0.1" byte_order="LittleEndian" header_type="UInt32" compressor="vtkZLibDataCompressor">
  <UnstructuredGrid>
    <Piece NumberOfPoints="6405" NumberOfCells="4800">
      <PointData>
        <DataArray type="Float32" Name="DISPLACEMENT" NumberOfComponents="3" ComponentName0="X-DISPLACEMENT" ComponentName1="Y-DISPLACEMENT" ComponentName2="Z-DISPLACEMENT" format="ascii" RangeMin="0" RangeMax="365.42241959">
          0 0 0 0 0 0
          2.7831699848 -1.5600801706 -1.2951284647 0 0 0
          1.6066663265 -0.85512757301 -0.86824190617 0 0 0
          2.5569834709 -1.8132078648 -0.51236987114 1.3960820436 -1.0770947933 -0.3536554873
          0 0 0 5.1022105217 -3.2659654617 -1.344081521
          0 0 0 5.035340786 -3.5720994473 -0.68273997307
          3.2353816032 -2.7106397152 -0.96706664562 0 0 0
          0 0 0 2.575442791 -1.8871639967 -5.0990971445e-09
          0.84916543961 -0.55287879705 -0.49188423157 1.3885080814 -1.1183848381 6.3160561226e-09
          3.1630337238 -2.9717020988 -0.49081146717 0.72772359848 -0.77411741018 -0.20311076939
          4.9847202301 -3.6564130783 8.8816305421e-09 1.6944330931 -2.3470814228 -0.56812852621
          0 0 0 3.1201336384 -3.0495386124 2.6934786845e-08
          1.6128714085 -2.5875477791 -0.29041358829 0 0 0
          7.206079483 -5.7395277023 -1.2549519539 0 0 0
          0.7231978178 -0.81489318609 1.3297185575e-08 0 0 0
          0 0 0 2.5569834709 -1.8132078648 0.51236981153
          4.7597708702 -5.216506958 -0.93116271496 7.2253689766 -5.9808502197 -0.63263642788
          -0.04653166607 -0.51125711203 -0.078947298229 1.3960821629 -1.0770947933 0.3536554873
          4.7686281204 -5.4447212219 -0.47195446491 -0.13863173127 -0.7491773963 -0.049926396459
          1.5725029707 -2.653939724 4.296014211e-08 5.0353412628 -3.5720994473 0.68273997307
          0 0 0 0 0 0
          0.0021416202653 -2.2329089642 -0.20110988617 2.5982997417 -4.8729777336 -0.6129887104
          7.2036685944 -6.0601315498 3.3944189681e-08 3.1630337238 -2.9717020988 0.49081152678
          2.5560693741 -5.0836558342 -0.31186324358 0.72772365808 -0.77411741018 0.20311081409
          4.7542800903 -5.5148458481 5.8826049809e-08 -0.089777417481 -2.4605364799 -0.11400928348
          -0.17362819612 -0.80368900299 2.804030963e-08 0 0 0
          9.1120796204 -8.7282524109 -1.1023752689 0 0 0
          6.2114810944 -8.2584095001 -0.8682820797 1.6128715277 -2.5875477791 0.29041367769
          9.1591625214 -8.9025716782 -0.55396765471 2.7831702232 -1.5600802898 1.2951285839
          0 0 0 0 0 0
          -0.12390573323 -2.5267534256 4.9568694038e-08 2.5366165638 -5.1467027664 7.6617567402e-08
          -0.75330942869 -0.76129025221 0.25894206762 6.2442059517 -8.426399231 -0.43578895926
          1.6066664457 -0.85512757301 0.86824190617 0.27640593052 -4.7152218819 -0.32787683606
          0 0 0 7.2253689766 -5.9808502197 0.63263648748
          -0.93538087606 -1.0015273094 0.083246603608 0.20893767476 -4.9039530754 -0.17306154966
          4.7686281204 -5.4447212219 0.47195458412 -0.13863174617 -0.7491773963 0.049926444888
          3.5700337887 -7.9314818382 -0.64068001509 -1.2586400509 -2.4690203667 -0.01845446974
          9.1519165039 -8.9592084885 7.0948637187e-08 5.1022109985 -3.2659654617 1.344081521
          0 0 0 0 0 0
          3.546890974 -8.0821037292 -0.32161441445 3.2353816032 -2.7106397152 0.96706676483
          6.2457733154 -8.4794874191 1.0203980594e-07 -1.4093607664 -2.6179411411 -0.0012630174169
          0.84916549921 -0.55287885666 0.49188426137 -1.102055788 -1.0868641138 1.3934577048e-08
          0.19387972355 -4.9640202522 9.2778030591e-08 2.5560696125 -5.0836558342 0.31186342239
          -0.08977741003 -2.4605364799 0.11400939524 3.5390331745 -8.1295700073 1.2924549253e-07
          1.6944332123 -2.3470814228 0.56812864542 -1.4435459375 -2.6756284237 4.8644100303e-08
          0.8001101613 -7.7494001389 -0.4536922574 9.1591625214 -8.9025716782 0.55396777391
          7.2060799599 -5.7395277023 1.2549520731 0 0 0
          10.799184799 -12.076369286 -0.96162700653 0 0 0
          0 0 0 -1.378272891 -4.9514389038 -0.27414748073
          0.74772018194 -7.8713860512 -0.22850388288 10.847537994 -12.188694 -0.48113748431
          7.5794415474 -11.652376175 -0.80920600891 6.2442059517 -8.426399231 0.43578916788
          -0.90691608191 -1.1373800039 0.46287330985 0 0 0
          4.7597708702 -5.2165074348 0.93116283417 -0.046531636268 -0.51125711203 0.078947342932
          -1.5167297125 -5.0136823654 -0.11379183829 -0.93538093567 -1.0015273094 -0.083246581256
          -1.0657075644 -1.3115913868 0.20597665012 0.20893776417 -4.9039530754 0.17306174338
          7.6147413254 -11.761816025 -0.40352743864 3.546890974 -8.0821037292 0.32161468267
          0.74140846729 -7.9154267311 1.5755857419e-07 10.847019196 -12.225547791 1.1801476774e-07
          -1.4865714312 -2.9817180634 -0.050459675491 -1.4093608856 -2.6179411411 0.0012631342979
          0 0 0 4.5903630257 -11.338477135 -0.66208291054
          0.0021416775417 -2.2329089642 0.20111000538 2.5982997417 -4.8729782104 0.61298888922
          -1.5379785299 -5.061674118 1.109348986e-07 7.6212992668 -11.795945168 1.5455032099e-07
          -1.1885546446 -1.3896591663 -7.9480344084e-08 -1.8856905699 -2.9986925125 0.017667980865
          4.5767216682 -11.429937363 -0.33053991199 9.1120796204 -8.7282533646 1.1023753881
          0 0 0 -1.2122327089 -7.9604177475 -0.52588772774
          6.2114815712 -8.2584104538 0.86828231812 -2.0160012245 -3.0091519356 -3.2791785287e-08
          -1.3393270969 -7.9480032921 -0.23482455313 4.574215889 -11.459183693 1.8902603927e-07
          -0.75330942869 -0.76129025221 -0.25894203782 0.74772030115 -7.8713860512 0.22850419581
          1.5082832575 -11.138046265 -0.56037908792 10.847537994 -12.188694 0.48113772273
          -1.3707969189 -5.7225203514 -0.74008381367 0.27640613914 -4.7152223587 0.32787707448
          0 0 0 -1.5167298317 -5.0136823654 0.1137920469
          1.468214035 -11.195534706 -0.28051245213 -1.0657073259 -1.3115913868 -0.20597676933
          -1.7865085602 -5.4971203804 -0.301733464 7.6147418022 -11.761816025 0.40352776647
          3.5700340271 -7.9314823151 0.64068025351 -1.2586400509 -2.4690203667 0.018454603851
          12.285059929 -15.635605812 -0.84569215775 0 0 0
          -1.3603798151 -7.9869632721 1.4350912636e-07 8.8640890121 -15.252304077 -0.75952732563
          12.326776505 -15.698959351 -0.42263996601 0 0 0
          -0.8473674655 -1.3206717968 0.55653387308 8.8956956863 -15.313491821 -0.37769401073
          1.4657224417 -11.221010208 2.20030131e-07 -0.86930900812 -1.4908900261 0.21592471004
          -1.885690093 -2.9986925125 -0.017667967826 -1.947761178 -5.4288182259 -1.6520521839e-08
          4.5767221451 -11.429937363 0.33054026961 5.6402425766 -14.952316284 -0.67744320631
          -1.838128686 -3.3340065479 0.098281182349 12.328924179 -15.719742775 1.7046205869e-07
          0 0 0 -2.0985367298 -3.4021208286 -0.0070963278413
          5.6343383789 -14.995181084 -0.33823597431 8.9032421112 -15.331976891 2.1345066159e-07
          -0.94831347466 -1.6014590263 -9.0421153232e-08 0.80011039972 -7.7494001389 0.45369255543
          -0.76518237591 -11.349762917 -0.7615391016 10.799184799 -12.076369286 0.96162724495
          0 0 0 -0.7753341794 -9.1187820435 -1.2640295029
          -1.3393273354 -7.9480028152 0.23482480645 -1.3782730103 -4.9514393806 0.27414765954
          7.5794420242 -11.652376175 0.80920630693 -0.90691566467 -1.1373798847 -0.46287328005
          -0.99072027206 -8.8845882416 -0.58009123802 -0.88483381271 -11.249772072 -0.34341067076
          1.4682141542 -11.195534706 0.28051289916 -1.7865077257 -5.4971208572 0.30173352361
          5.6347465515 -15.009168625 2.5487207722e-07 -2.0380327702 -3.4254803658 -1.2437627106e-07
          2.3573074341 -14.735289574 -0.64648467302 -2.1874089241 -6.3075580597 -0.94432914257
          -1.4865707159 -2.9817183018 0.050459899008 12.326776505 -15.698959351 0.42264029384
          4.5903635025 -11.338477135 0.66208326817 0 0 0
          -0.92347925901 -11.252295494 1.7785281159e-07 -1.0975425243 -8.8155937195 -1.4254471381e-08
          2.3325657845 -14.744391441 -0.32324007154 8.8956956863 -15.313491821 0.37769442797
          -2.4140820503 -6.1077628136 -0.53350287676 -0.86930900812 -1.4908900261 -0.21592485905
          -1.2122330666 -7.9604172707 0.52588784695 2.3331906796 -14.75685215 2.929777736e-07
          5.6343383789 -14.995181084 0.33823648095 -2.0985367298 -3.4021208286 0.007096234709
          -2.3715941906 -6.0315465927 -5.8787410495e-08 13.605138779 -19.294467926 -0.75721156597
          0 0 0 13.638859749 -19.322828293 -0.37840273976
          1.5082834959 -11.138046265 0.56037956476 10.073590279 -18.943094254 -0.718511343
          -1.3707956076 -5.7225208282 0.7400841713 -0.098016902804 -12.738033295 -1.3982400894
          -1.0872890949 -1.4989875555 0.65927255154 -0.99071919918 -8.8845891953 0.58009135723
          -0.88483399153 -11.249772072 0.34341102839 0 0 0
          10.100672722 -18.96969986 -0.35707399249 -0.075816206634 -12.634616852 -0.68321609497
          -1.2418324947 -1.7632960081 0.2129624784 -0.07351667434 -14.908901215 -0.93410927057
          -1.8767451048 -9.8505849838 -1.3606840372 12.285059929 -15.635605812 0.84569251537
          0 0 0 8.8640890121 -15.252304077 0.75952774286
          13.642510414 -19.332181931 2.2562876723e-07 -1.8409872055 -9.7474946976 -0.74338847399
          -0.14824916422 -14.785547256 -0.42824026942 -0.84736758471 -1.3206716776 -0.55653399229
          6.6990804672 -18.654605865 -0.68333160877 -2.1828725338 -3.6580612659 0.19518618286
          0 0 0 2.3325660229 -14.744391441 0.32324066758
          -2.4140810966 -6.1077632904 0.53350293636 10.107953072 -18.9770298 2.7695571703e-07
          -0.06955832988 -12.614787102 9.4185665489e-08 6.7023644447 -18.663990021 -0.34141439199
          -2.502481699 -3.7921907902 0.010891117156 -1.735363245 -2.0412840843 -1.3129384513e-07
          5.6402430534 -14.952316284 0.67744374275 -1.8381284475 -3.3340067863 -0.098280996084
          -0.18551543355 -14.786941528 2.7468630037e-07 -1.7641906738 -9.7113666534 4.7720977392e-08
          -0.76518255472 -11.349762917 0.76153945923 6.7053489685 -18.667715073 3.2765950664e-07
          -2.5739705563 -3.8054292202 -1.3159684897e-07 -0.77533257008 -9.1187829971 1.2640297413
          13.638859749 -19.322828293 0.3784031868 3.3208363056 -18.43013382 -0.70066004992
          0 0 0 -2.7427992821 -7.3147988319 -1.2414820194
          3.3123834133 -18.408084869 -0.34946236014 10.100672722 -18.96969986 0.35707455873
          -1.2418326139 -1.7632961273 -0.21296271682 -0.075815327466 -12.634617805 0.68321633339
          -2.7550363541 -7.2237687111 -0.63304585218 2.3573079109 -14.735289574 0.64648526907
          0.44497525692 -16.113471985 -1.2907823324 -0.14824920893 -14.785547256 0.42824080586
          -2.1874079704 -6.3075585365 0.94432938099 -1.840986371 -9.7474956512 0.74338853359
          -1.3329156637 -13.406057358 -1.2773638964 0.61020046473 -16.174064636 -0.63357228041
          3.3128917217 -18.410474777 3.7338602965e-07 6.7023649216 -18.663990021 0.34141504765
          -2.502481699 -3.7921910286 -0.010891207494 -1.1839751005 -13.461582184 -0.68079543114
          -2.6394064426 -7.2660799026 -2.8912879202e-08 14.802586555 -22.976089478 -0.69476473331
          0 0 0 -0.9988899231 -1.5096328259 0.78302884102
          0.72244882584 -16.259937286 1.9565878517e-07 0.82293194532 -18.545463562 -0.97054386139
          11.221611023 -22.645980835 -0.68458390236 13.605138779 -19.294467926 0.75721204281
          0 0 0 0 0 0
          -1.089351058 -13.490098 1.532683882e-07 -2.4527027607 -11.017090797 -1.3801681995
          14.828654289 -22.983140945 -0.34716045856 0.804874897 -18.434148788 -0.45878502727
          11.244343758 -22.651861191 -0.3403840661 10.073590279 -18.943094254 0.71851187944
          -0.89714086056 -1.7376651764 0.2123465836 -0.098015613854 -12.738034248 1.3982402086
          -1.0872890949 -1.4989875555 -0.65927267075 -2.3144390583 -11.044939041 -0.68886947632
          3.3123834133 -18.408084869 0.3494631052 -2.7550358772 -7.2237691879 0.63304585218
          7.7589488029 -22.358915329 -0.67647111416 -0.073516651988 -14.908901215 0.93410980701
          -1.8767439127 -9.8505859375 1.3606840372 0 0 0
          -3.223099947 -4.7481584549 -0.47204047441 14.833294868 -22.985439301 2.8143921327e-07
          -1.3682074547 -2.226831913 -1.770595901e-07 0.77807080746 -18.430828094 3.7185014889e-07
          7.7701163292 -22.351289749 -0.33824005723 6.6990804672 -18.654605865 0.68333226442
          11.251078606 -22.652547836 3.4440040508e-07 -2.1828722954 -3.6580615044 -0.19518607855
          -2.2475669384 -11.080949783 4.7785473356e-08 -3.7007830143 -4.6915407181 -0.36958137155
          0.61020088196 -16.174064636 0.63357269764 -1.1839743853 -13.461583138 0.68079566956
          -0.72573423386 -16.785173416 -1.0888392925 7.7746229172 -22.349424362 4.0607397978e-07
          -3.796633482 -4.7002782822 -2.8085125336e-08 -0.5752056241 -16.893047333 -0.55089330673
          4.334956646 -22.118314743 -0.71003657579 0 0 0
          -3.6295261383 -8.6666221619 -1.4681963921 14.828654289 -22.983140945 0.34716102481
          -0.89714074135 -1.7376652956 -0.21234688163 0.804874897 -18.434148788 0.45878577232
          4.3432555199 -22.087310791 -0.35596832633 3.320836544 -18.43013382 0.70066082478
          11.244343758 -22.651861191 0.34038475156 0.9857711792 -19.439702988 -1.1449323893
          -2.093405962 -14.366342545 -1.1467360258 -2.7427988052 -7.3147997856 1.2414822578
          -3.5468232632 -8.5880184174 -0.7306650877 -2.3144385815 -11.044939041 0.68886947632
          1.1465700865 -19.491153717 -0.55306875706 -1.9816172123 -14.449352264 -0.56665468216
          -0.49551206827 -16.939306259 2.127111145e-07 0.44497606158 -16.113471985 1.29078269
          7.7701163292 -22.351289749 0.3382408917 -1.3329143524 -13.406058311 1.2773640156
          4.346221447 -22.085884094 4.6053628466e-07 -3.7007830143 -4.6915411949 0.36958146095
          -3.5396986008 -8.5884504318 -5.8903966149e-09 1.2505706549 -19.531906128 2.9962424719e-07
          -1.9450204372 -14.499238968 1.0231985925e-07 -3.4039924145 -12.120517731 -1.2821786404
          1.7302644253 -22.133752823 -0.91063523293 14.802586555 -22.976089478 0.69476526976
          0 0 0 -0.57520490885 -16.893047333 0.55089366436
          -0.99888986349 -1.5096328259 -0.78302901983 -3.2952010632 -12.173131943 -0.64623141289
          0.82293200493 -18.545463562 0.97054463625 11.221611023 -22.645980835 0.68458461761
          1.7591403723 -22.057706833 -0.44280800223 15.919211388 -26.639640808 -0.65493685007
          0 0 0 -2.4527020454 -11.017091751 1.3801680803
          15.938357353 -26.6369133 -0.32709923387 -1.6498712301 -3.7517187595 -0.34868195653
          12.323864937 -26.321710587 -0.65746879578 4.3432555199 -22.087310791 0.3559692502
          0 0 0 -3.5468232632 -8.5880184174 0.7306650281
          12.342063904 -26.318452835 -0.32711651921 -2.1986167431 -3.7161757946 0.0057624462061
          1.1465705633 -19.491153717 0.55306941271 -1.9816166162 -14.449352264 0.56665480137
          7.7589492798 -22.358915329 0.67647188902 -3.2650282383 -12.206163406 -2.3895882606e-08
          1.7601103783 -22.061326981 4.7924578439e-07 -3.2231004238 -4.7481589317 0.47204104066
          -0.15527786314 -20.048891068 -0.93973249197 -2.4614191055 -7.2505474091 -2.1940777302
          8.8131084442 -26.031721115 -0.6601845026 -1.7300549746 -17.550424576 -0.97247004509
          15.943462372 -26.635875702 3.3784365883e-07 0 0 0
          -0.030152697116 -20.126941681 -0.46617680788 12.347988129 -26.316238403 4.161433651e-07
          -2.0339589119 -3.8730454445 -2.3582460074e-07 8.8285121918 -26.018917084 -0.33002594113
          -2.710914135 -6.7149934769 -1.094366312 -1.6644473076 -17.587202072 -0.47770154476
          -0.72573316097 -16.785173416 1.0888396502 0.035235218704 -20.151060104 3.2375876913e-07
          -3.0880308151 -15.285998344 -1.1325409412 -3.2952008247 -12.173131943 0.64623129368
          1.6043007374 -22.792264938 -1.0174897909 8.8338766098 -26.014854431 4.9268209068e-07
          4.3349571228 -22.118314743 0.71003746986 1.7591404915 -22.057706833 0.44280898571
          -1.6500118971 -17.608976364 1.7827414922e-07 -2.8241620064 -6.5148096085 -1.7072578373e-07
          -3.6295258999 -8.6666221619 1.4681961536 15.938357353 -26.6369133 0.32709991932
          5.3614792824 -25.776538849 -0.69215166569 -3.0204672813 -15.330470085 -0.54629427195
          -1.9121816158 -10.991747856 -2.0085537434 1.7419673204 -22.836357117 -0.48754152656
          0.98577207327 -19.439702988 1.1449329853 -2.0934050083 -14.366342545 1.1467360258
          0 0 0 -1.8788776398 -10.890151024 -0.96877735853
          12.342064857 -26.318452835 0.32711735368 -2.1986169815 -3.716176033 -0.0057628597133
          5.3787746429 -25.747728348 -0.34754183888 -3.0010764599 -15.368618965 -6.699376609e-09
          1.8243887424 -22.858524323 4.3733115263e-07 -0.030152184889 -20.126941681 0.46617743373
          5.3837990761 -25.744655609 5.6174508245e-07 -1.9288964272 -10.832461357 -3.6538583004e-07
          8.8285131454 -26.018917084 0.33002692461 -2.710914135 -6.7149934769 1.0943658352
          -1.6644468307 -17.587202072 0.47770187259 -3.4039919376 -12.120517731 1.2821782827
          1.7302646637 -22.133752823 0.9106361866 2.6651685238 -25.71736145 -0.84382164478
          15.919212341 -26.639642715 0.65493756533 0 0 0
          -1.3465123177 -14.322604179 -1.6410560608 -1.6498715878 -3.7517187595 0.3486816287
          12.323865891 -26.321710587 0.65746963024 -3.0204670429 -15.330470085 0.54629421234
          1.7419679165 -22.836357117 0.48754242063 2.7061855793 -25.663677216 -0.41091319919
          -1.3393756151 -20.672672272 -0.87833338976 -1.2901217937 -14.352874756 -0.74380075932
          -1.8788774014 -10.890151024 0.96877658367 5.3787746429 -25.747728348 0.34754294157
          -1.3059270382 -20.661245346 -0.43303397298 0.36960652471 -23.264089584 -0.82472264767
          -2.6728112698 -18.341060638 -1.0885027647 16.989139557 -30.273435593 -0.63306069374
          0 0 0 13.392803192 -29.96222496 -0.63718342781
          -0.15527698398 -20.048891068 0.93973302841 -2.4614193439 -7.2505474091 2.1940772533
          8.8131093979 -26.031721115 0.66018545628 -2.6596946716 -18.31373024 -0.51168602705
          0.46286457777 -23.309305191 -0.41072303057 -1.7300540209 -17.550424576 0.97247028351
          17.002267838 -30.269287109 -0.31598228216 0 0 0
          -1.3721637726 -14.270944595 -4.4537586064e-07 2.7181448936 -25.665956497 6.0528532231e-07
          0.04798379913 -4.816286087 -0.0080959303305 13.406464577 -29.957868576 -0.31720331311
          0.044368308038 -4.9485883713 -0.0058524785563 -1.3093264103 -20.660280228 2.8104170724e-07
          9.8536844254 -29.670549393 -0.64046096802 -2.6786668301 -18.30953598 5.8261814928e-08
          0.50678098202 -23.314573288 4.5418539685e-07 17.007276535 -30.267663956 3.9514645778e-07
          0 0 0 0.046306524426 -8.3721513748 -0.032486882061
          9.8697805405 -29.659448624 -0.32000422478 13.411392212 -29.955360413 4.9421572612e-07
          -3.0880300999 -15.285998344 1.132540822 1.6043018103 -22.792264938 1.0174907446
          0.042915090919 -4.9099802971 -8.2257332679e-07 0.049439724535 -8.7751207352 -0.015179857612
          5.3614797592 -25.776538849 0.69215279818 -1.9121812582 -10.991747856 2.0085530281
          -0.9061178565 -17.192720413 -1.3316816092 2.2717049122 -26.160326004 -0.89140403271
          -1.2901214361 -14.352874756 0.74379992485 2.7061858177 -25.663677216 0.41091442108
          -0.82332324982 -17.350576401 -0.58399558067 2.3847169876 -26.195941925 -0.4285248518
          -1.3059265614 -20.661245346 0.43303453922 9.8752765656 -29.655595779 5.905501439e-07
          0.048847347498 -8.7069396973 -1.1506139117e-06 6.3785033226 -29.406070709 -0.66477298737
          -2.6596941948 -18.31373024 0.51168614626 0.46286508441 -23.309305191 0.41072392464
          17.002267838 -30.269287109 0.31598305702 0 0 0
          0.052538622171 -11.991406441 -0.029232984409 6.3982138634 -29.383886337 -0.33380159736
          13.40646553 -29.957868576 0.31720429659 0.056683015078 -12.51239872 -0.015998389572
          -0.88912248611 -17.28861618 -4.4237566499e-07 2.4462020397 -26.20536232 5.8957044757e-07
          0.04436904192 -4.9485883713 0.0058508771472 9.8697805405 -29.659448624 0.32000538707
          6.4039492607 -29.38139534 6.7828091233e-07 0.056673120707 -12.535871506 -1.0910406445e-06
          2.6651687622 -25.71736145 0.84382283688 -0.92691129446 -23.757640839 -0.82139611244
          0.04944056645 -8.7751207352 0.015177557245 -1.3465117216 -14.322604179 1.6410552263
          -2.1248457432 -21.332761765 -1.0734255314 -0.90596657991 -23.724205017 -0.40974587202
          -1.3393746614 -20.672672272 0.8783338666 -2.1448478699 -21.279088974 -0.50353449583
          -0.82332283258 -17.350576401 0.58399474621 2.3847174644 -26.195941925 0.42852604389
          0.36960735917 -23.264089584 0.82472354174 -2.6728105545 -18.341060638 1.0885027647
          0.058036454022 -15.08529377 -0.026654480025 3.6231527328 -29.28912735 -0.78357434273
          16.989139557 -30.273435593 0.63306152821 0 0 0
          13.392803192 -29.96222496 0.63718444109 0.06072961539 -15.554900169 -0.014383730479
          -0.92208832502 -23.716148376 4.247901586e-07 -0.48672568798 -19.818065643 -1.0773775578
          0.89724957943 -26.484270096 -0.73704564571 3.6648080349 -29.252552032 -0.38175731897
          0.047984655946 -4.816286087 0.0080945566297 -2.1974210739 -21.25060463 1.613544498e-07
          6.3982138634 -29.383886337 0.33380296826 0.056683801115 -12.51239872 0.015996217728
          0.96398746967 -26.514478683 -0.36975494027 -0.41852000356 -20.054105759 -0.48631972075
          9.8536844254 -29.670549393 0.64046216011 0.060054026544 -15.461109161 -9.1423208914e-07
          3.6802875996 -29.254865646 7.4225960134e-07 0.046308003366 -8.3721513748 0.032484695315
          0.98829561472 -26.513811111 6.0838243598e-07 18.03663063 -33.88356781 -0.62434232235
          0 0 0 -0.47830656171 -20.015394211 -3.0167907994e-07
          18.044839859 -33.883392334 -0.31154981256 0 0 0
          -0.90596610308 -23.724205017 0.40974670649 14.437420845 -33.575901031 -0.62312453985
          -0.90611720085 -17.192720413 1.3316810131 2.2717061043 -26.160326004 0.8914052248
          1.6832735538 -3.7180962563 0.26354187727 -2.144847393 -21.279088974 0.50353485346
          14.447052002 -33.575519562 -0.31038215756 2.2218415737 -3.6771357059 -0.052067019045
          6.3785033226 -29.406070709 0.66477429867 18.04942131 -33.883018494 4.5413389671e-07
          0.060730408877 -15.554901123 0.014381916262 10.874403 -33.285224915 -0.62109273672
          2.5640535355 -7.2906475067 2.1897833347 3.6648082733 -29.252552032 0.38175880909
          0 0 0 2.964006424 -29.538908005 -0.78512257338
          0.062038362026 -17.727413177 -0.024768689647 0.05254008621 -11.991406441 0.029230874032
          2.8262696266 -6.7358083725 1.0961275101 10.889550209 -33.279537201 -0.31028652191
          14.45096302 -33.574420929 5.7848887991e-07 0.96398800611 -26.514480591 0.36975616217
          0.063656397164 -18.19480896 -0.013368530199 3.0493795872 -29.568180084 -0.37951016426
          -0.41851940751 -20.054105759 0.4863191545 2.0523843765 -3.8180530071 -6.2465170458e-07
          -1.424054265 -24.295038223 -1.0297827721 10.894685745 -33.277404785 6.9959838811e-07
          -0.92691040039 -23.757640839 0.82139694691 2.9440083504 -6.524805069 -1.2464245174e-06
          0.062958046794 -18.11091423 -6.8623688776e-07 -1.4478194714 -24.27407074 -0.48660159111
          3.0909912586 -29.569238663 7.6298670137e-07 -2.1248447895 -21.332761765 1.0734260082
          18.044839859 -33.883392334 0.31155070662 7.3751430511 -33.017364502 -0.63598388433
          -0.042681470513 -22.335487366 -0.85211002827 0 0 0
          2.0581805706 -11.012043953 2.0218119621 -0.49125778675 -26.833986282 -0.7491620183
          2.0131909847 -10.915266037 0.97637790442 7.3943538666 -33.003173828 -0.31910517812
          14.447052002 -33.575519562 0.31038331985 -0.0049265515991 -22.608320236 -0.40808263421
          -0.47023764253 -26.814043045 -0.38069504499 2.2218415737 -3.6771359444 0.05206573382
          0.058037891984 -15.08529377 0.02665274404 3.6231529713 -29.289129257 0.78357583284
          -1.5196111202 -24.249416351 3.2407265849e-07 -0.4867246747 -19.818065643 1.0773770809
          0.8972505331 -26.484270096 0.73704683781 7.3996911049 -33.00245285 8.1256388285e-07
          10.889551163 -33.279537201 0.31028792262 -0.06704749167 -22.589382172 -6.4823090895e-08
          2.8262701035 -6.7358088493 -1.0961300135 2.0619647503 -10.857094765 -1.2579963595e-06
          0.063657194376 -18.19480896 0.013367166743 3.049380064 -29.568180084 0.37951168418
          -0.49215334654 -26.816604614 5.9400292685e-07 1.4569575787 -29.743732452 -0.66120803356
          0.066724993289 -20.159801483 -0.023612370715 1.5033686161 -29.766994476 -0.33363646269
          0.067318692803 -20.611536026 -0.012943220325 18.03663063 -33.88356781 0.62434321642
          0 0 0 -1.4478188753 -24.27407074 0.48660224676
          1.4999474287 -14.347055435 1.6384497881 4.6031060219 -32.860210419 -0.73364549875
          1.4368941784 -14.389313698 0.74280112982 14.437420845 -33.575901031 0.62312567234
          1.6832735538 -3.7180964947 -0.26354297996 4.6423420906 -32.83682251 -0.35624995828
          7.3943538666 -33.003173828 0.31910678744 -0.0049258815125 -22.608320236 0.4080825448
          2.0131917 -10.915266991 -0.9763802886 -0.47023716569 -26.814043045 0.38069623709
          1.5120978355 -29.763780594 7.9420897237e-07 0.066604234278 -20.565771103 -4.1015431407e-07
          10.874403 -33.285224915 0.62109410763 2.5640547276 -7.2906484604 -2.1897854805
          2.9640073776 -29.538908005 0.7851241231 1.5185214281 -14.306411743 -1.0215542261e-06
          0.062039833516 -17.727413177 0.024767357856 4.6585021019 -32.839294434 9.0112354201e-07
          19.078262329 -37.484546661 -0.62506389618 0 0 0
          -1.4240530729 -24.295038223 1.0297836065 1.5033692122 -29.766994476 0.33363807201
          0 0 0 15.464791298 -37.178150177 -0.61402881145
          0.39652526379 -24.871166229 -0.66322857141 0.067319437861 -20.611536026 0.012942411005
          1.0141743422 -1.5129822493 -0.80314362049 -0.61797302961 -27.210824966 -0.9319679141
          19.082689285 -37.491844177 -0.31195679307 7.375143528 -33.017364502 0.63598549366
          15.47127533 -37.185073853 -0.3060670495 0.8979241848 -1.7390370369 -0.22491922975
          -0.042680263519 -22.335487366 0.85211002827 0.42384523153 -25.158311844 -0.33837595582
          2.0581820011 -11.012044907 -2.0218141079 3.6823153496 -32.949569702 -0.69845837355
          1.4368948936 -14.389314651 -0.74280315638 -0.49125686288 -26.833986282 0.74916321039
          1.0623164177 -17.219390869 1.3162660599 4.6423420906 -32.83682251 0.35625177622
          -0.62441116571 -27.24949646 -0.44431948662 0.97609037161 -17.390701294 0.57620930672
          3.7433469296 -32.977134705 -0.34086036682 11.871416092 -36.889968872 -0.60290664434
          19.086824417 -37.493946075 5.1537352874e-07 3.3041522503 -4.7086601257 0.33903187513
          0 0 0 11.885723114 -36.892219543 -0.30123502016
          3.8332252502 -4.6661849022 0.3146097064 15.474328995 -37.186542511 6.700674362e-07
          -0.045974992216 -29.960155487 -0.66424912214 0.37765237689 -25.175498962 2.0795133082e-07
          -0.695055902 -27.247610092 5.430358101e-07 0.072784043849 -22.537195206 -0.022700704634
          1.3786215782 -2.232165575 -6.970918065e-08 -0.0301536154 -29.958786011 -0.34168037772
          3.7676491737 -32.973831177 9.5944051282e-07 0.072539150715 -22.958204269 -0.012549934909
          1.0426762104 -17.326532364 -7.1085753461e-07 1.4569587708 -29.743732452 0.66120964289
          11.890471458 -36.892814636 8.2180349636e-07 0.066726334393 -20.159801483 0.023611595854
          3.9506177902 -4.6739206314 -6.7028656758e-07 8.3435993195 -36.624164581 -0.60650789738
          19.082689285 -37.491844177 0.31195783615 -0.056644726545 -29.967115402 7.9927906427e-07
          3.836176157 -8.6408348083 1.4731214046 1.4999489784 -14.347056389 -1.6384518147
          0.071831911802 -22.968645096 -1.2283108219e-07 4.6031064987 -32.860210419 0.73364728689
          0 0 0 8.3621425629 -36.618999481 -0.30425205827
          3.7576134205 -8.5463209152 0.7311950326 15.471276283 -37.185073853 0.30606839061
          0.42384594679 -25.158311844 0.33837640285 -0.62441033125 -27.24949646 0.4443205893
          0.89792436361 -1.7390370369 0.22491909564 3.7433476448 -32.977134705 0.34086227417
          0.97609108686 -17.390701294 -0.57621073723 11.885724068 -36.892219543 0.30123665929
          8.3666753769 -36.620765686 9.6665769433e-07 2.0229802132 -33.048297882 -0.59227102995
          0.64481055737 -19.844579697 1.0521392822 3.7498364449 -8.5489664078 -9.3162708481e-07
          3.8332254887 -4.666185379 -0.3146110177 0.57453322411 -20.094738007 0.47378280759
          -0.030153051019 -29.958786011 0.34168198705 2.0564787388 -33.071426392 -0.30243483186
          0.072539873421 -22.958204269 0.012549693696 5.6002202034 -36.441192627 -0.69000148773
          19.078262329 -37.484546661 0.62506496906 0 0 0
          3.6346421242 -12.116565704 1.2965886593 5.6372218132 -36.429626465 -0.33335211873
          15.464792252 -37.178153992 0.61403018236 3.5231711864 -12.161946297 0.65283811092