<?xml version="1.0"?>
<VTKFile type="UnstructuredGrid" version="0.1" byte_order="LittleEndian" header_type="UInt32" compressor="vtkZLibDataCompressor">
  <UnstructuredGrid>
    <Piece NumberOfPoints="6405" NumberOfCells="4800">
      <PointData>
        <DataArray type="Float32" Name="DISPLACEMENT" NumberOfComponents="3" ComponentName0="X-DISPLACEMENT" ComponentName1="Y-DISPLACEMENT" ComponentName2="Z-DISPLACEMENT" format="ascii" RangeMin="0" RangeMax="269.9123256">
          0 0 0 0 0 0
          2.2274484634 -1.306391716 -1.0643820763 0 0 0
          1.5660457611 -0.73668068647 -0.89342153072 0 0 0
          2.0267646313 -1.4348978996 -0.4339209497 1.3689905405 -0.85110539198 -0.36132439971
          0 0 0 4.0240917206 -2.155598402 -1.107478261
          0 0 0 3.9673707485 -2.3285074234 -0.57699865103
          3.2005331516 -1.6300119162 -0.93100368977 0 0 0
          0 0 0 2.0340843201 -1.4919865131 3.9967238408e-09
          1.6932846308 -0.39072874188 -0.74860972166 1.3666132689 -0.88538604975 1.3803997945e-08
          3.145352602 -1.7798935175 -0.47875320911 1.5797373056 -0.5397606492 -0.29723846912
          3.9241034985 -2.380761385 9.1226525001e-08 2.7930533886 -1.1339675188 -0.66625678539
          0 0 0 3.1033434868 -1.8298732042 1.008843924e-07
          2.7401506901 -1.3030538559 -0.35034245253 0 0 0
          5.7333316803 -3.3317430019 -1.0464268923 0 0 0
          1.5617935658 -0.55687052011 -2.8956219644e-09 0 0 0
          0 0 0 2.0267646313 -1.4348978996 0.4339209795
          4.6610693932 -2.8743848801 -0.87855893373 5.7543711662 -3.4657502174 -0.53443109989
          2.3371379375 -0.51344317198 -0.25461223722 1.3689906597 -0.85110539198 0.36132445931
          4.6778998375 -3.0051884651 -0.44683820009 2.330037117 -0.75480753183 -0.18037396669
          2.7028474808 -1.34060812 9.1705196326e-08 3.9673709869 -2.3285074234 0.57699888945
          0 0 0 0 0 0
          2.324185133 -0.84480655193 -0.30998444557 3.9273312092 -2.5271553993 -0.69554507732
          5.7415800095 -3.5155448914 2.4834182e-07 3.145352602 -1.7798935175 0.47875344753
          3.9048750401 -2.6520040035 -0.35505577922 1.5797375441 -0.53976070881 0.29723846912
          4.6696271896 -3.0485813618 2.443509004e-07 2.2652239799 -1.0428931713 -0.20000593364
          2.2822535038 -0.76453912258 -2.4802970344e-08 0 0 0
          7.2917518616 -4.7605757713 -0.93005597591 0 0 0
          5.9936494827 -4.3671760559 -0.81268441677 2.7401509285 -1.3030538559 0.35034266114
          7.3382062912 -4.8575062752 -0.47236222029 2.2274487019 -1.3063918352 1.0643821955
          0 0 0 0 0 0
          2.2581760883 -1.083527565 9.0864396896e-08 3.8968000412 -2.6902632713 2.156283756e-07
          1.0856791735 -0.42705622315 -0.7267922163 6.033976078 -4.4633750916 -0.410115242
          1.5660458803 -0.73668074608 0.89342164993 2.9494891167 -2.2282576561 -0.56301277876
          0 0 0 5.7543716431 -3.4657502174 0.53443157673
          0.9303162694 -0.44210579991 -0.24122554064 2.9004843235 -2.3331904411 -0.26839053631
          4.6779003143 -3.0051884651 0.44683870673 2.3300373554 -0.75480759144 0.18037393689
          4.9322538376 -4.0997447968 -0.71144604683 2.284838438 -1.3046965599 -0.84313559532
          7.340446949 -4.8930687904 4.7012815685e-07 4.0240917206 -2.1555986404 1.1074784994
          0 0 0 0 0 0
          4.9501519203 -4.195661068 -0.35523080826 3.2005336285 -1.6300120354 0.93100392818
          6.0403633118 -4.4999418259 4.3759499135e-07 2.3250694275 -1.3111414909 -0.37195929885
          1.6932848692 -0.39072874188 0.74860984087 0.95848327875 -0.49541601539 -2.7230063537e-08
          2.9002463818 -2.3722302914 1.9673099416e-07 3.9048755169 -2.6520040035 0.35505622625
          2.2652242184 -1.0428931713 0.20000612736 4.9537420273 -4.2332777977 3.79211059e-07
          2.7930538654 -1.1339675188 0.66625702381 2.3404974937 -1.3689521551 1.7514620865e-08
          4.1420454979 -3.9424614906 -0.61962342262 7.338206768 -4.8575062752 0.47236314416
          5.7333321571 -3.3317432404 1.0464273691 0 0 0
          8.6986484528 -6.3228230476 -0.83169424534 0 0 0
          0 0 0 3.5736267567 -2.6375391483 -0.58499711752
          4.1270303726 -4.0481286049 -0.28126165271 8.7453432083 -6.3949398994 -0.41961613297
          7.2254476547 -5.9499015808 -0.74034959078 6.0339765549 -4.4633750916 0.41011613607
          0.85859817266 -0.3792822361 -0.59477555752 0 0 0
          4.66106987 -2.8743848801 0.87855947018 2.3371384144 -0.51344317198 0.25461220741
          3.6699740887 -2.7853505611 -0.032237887383 0.93031638861 -0.44210577011 0.24122552574
          0.74520605803 -0.43124902248 -0.25849446654 2.9004848003 -2.3331906796 0.26839098334
          7.2695708275 -6.0270066261 -0.37259313464 4.9501523972 -4.195661068 0.35523161292
          4.0847811699 -4.0651521683 2.9512887068e-07 8.7539978027 -6.4217729568 7.4736414035e-07
          1.5628526211 -1.2217793465 -0.63689309359 2.3250696659 -1.3111414909 0.37195929885
          0 0 0 5.9790430069 -5.6203784943 -0.64310103655
          2.3241858482 -0.84480649233 0.30998465419 3.927331686 -2.5271553993 0.69554561377
          3.6819252968 -2.7458221912 -3.5649500774e-07 7.2803707123 -6.055475235 6.7080696908e-07
          0.75018328428 -0.42768475413 -2.8197140178e-09 1.5492457151 -1.2854421139 -0.32739806175
          6.0092625618 -5.7096414566 -0.32330486178 7.2917523384 -4.7605757713 0.93005692959
          0 0 0 3.8542046547 -4.0393638611 -0.23819577694
          5.9936499596 -4.3671755791 0.81268531084 1.5376327038 -1.2825225592 2.5800829917e-08
          3.8846771717 -4.2326273918 -0.16131725907 6.0118913651 -5.7391886711 5.7820295751e-07
          1.0856792927 -0.42705619335 0.72679227591 4.1270313263 -4.0481286049 0.28126230836
          4.9690656662 -5.3305301666 -0.48940685391 8.7453432083 -6.3949398994 0.41961762309
          2.1883251667 -2.6296508312 -0.48348259926 2.9494900703 -2.2282576561 0.5630133152
          0 0 0 3.6699748039 -2.7853507996 0.03223791346
          4.9719324112 -5.44354105 -0.25225764513 0.74520611763 -0.43124899268 0.25849449635
          2.2384316921 -2.6540923119 -0.27978691459 7.2695713043 -6.0270066261 0.37259447575
          4.9322547913 -4.0997447968 0.71144688129 2.2848389149 -1.3046965599 0.84313577414
          9.9931612015 -7.9784188271 -0.75969046354 0 0 0
          3.8855764866 -4.2480921745 2.6589430036e-07 8.3951053619 -7.6223950386 -0.68159466982
          10.031284332 -8.0382928848 -0.38156074286 0 0 0
          0.5933175087 -0.41022154689 -0.44049325585 8.4308671951 -7.687857151 -0.34096688032
          4.9570527077 -5.4601659775 5.1085618225e-07 0.49505889416 -0.48177394271 -0.18676888943
          1.5492458344 -1.2854421139 0.32739815116 2.238047123 -2.636787653 2.142300275e-07
          6.0092630386 -5.7096409798 0.32330602407 6.9916563034 -7.3157382011 -0.59323662519
          1.0635242462 -1.2900320292 -0.49594396353 10.041129112 -8.0600910187 1.0560704595e-06
          0 0 0 1.0440641642 -1.3681682348 -0.25827670097
          7.0151939392 -7.3863401413 -0.29473981261 8.441450119 -7.7112283707 9.2392036777e-07
          0.49806344509 -0.48836502433 3.0423237263e-08 4.1420464516 -3.9424614906 0.61962413788
          3.8973309994 -5.1120357513 -0.25948500633 8.6986494064 -6.3228230476 0.83169573545
          0 0 0 2.8822872639 -4.1238312721 -0.36746937037
          3.8846776485 -4.2326273918 0.16131769121 3.5736277103 -2.6375391483 0.58499717712
          7.2254486084 -5.9499015808 0.74035096169 0.85859835148 -0.3792822063 0.59477561712
          2.9360437393 -4.1691393852 -0.17969068885 3.8700881004 -5.2567224503 -0.14503060281
          4.9719333649 -5.44354105 0.25225868821 2.2384319305 -2.6540925503 0.27978721261
          7.0213713646 -7.4080061913 7.9917248286e-07 1.0286049843 -1.3819135427 1.2155298634e-07
          5.7368907928 -7.1142206192 -0.48565688729 1.5549498796 -2.5484473705 -0.44895580411
          1.5628529787 -1.2217793465 0.6368932724 10.031284332 -8.0382919312 0.38156282902
          5.9790439606 -5.6203784943 0.64310222864 0 0 0
          3.867677927 -5.2942581177 4.4523264364e-07 2.9657475948 -4.196413517 3.8822960846e-07
          5.7353048325 -7.1646285057 -0.23434278369 8.4308681488 -7.6878566742 0.34096872807
          1.5819261074 -2.6066362858 -0.22929362953 0.49505892396 -0.48177394271 0.18676896393
          3.8542060852 -4.0393638611 0.23819625378 5.7450966835 -7.1678938866 6.7873384069e-07
          7.015194416 -7.3863401413 0.29474142194 1.0440641642 -1.3681682348 0.25827693939
          1.5822383165 -2.6239783764 2.6012912713e-07 11.204079628 -9.729095459 -0.71037989855
          0 0 0 11.232435226 -9.7828626633 -0.35563257337
          4.9690666199 -5.3305306435 0.48940786719 9.4870004654 -9.4009513855 -0.6397163868
          2.1883256435 -2.6296508312 0.48348286748 3.5327522755 -5.488650322 -0.40103328228
          0.39909398556 -0.47612431645 -0.30240529776 2.9360439777 -4.1691393852 0.1796913445
          3.8700890541 -5.2567224503 0.14503152668 0 0 0
          9.5137710571 -9.4578647614 -0.31895259023 3.4108436108 -5.4888415337 -0.027935588732
          0.32812929153 -0.545971632 -0.12702713907 4.5354094505 -7.0374298096 -0.4431104064
          2.0781536102 -3.9992194176 -0.38987389207 9.9931621552 -7.9784183502 0.75969254971
          0 0 0 8.3951063156 -7.6223945618 0.68159645796
          11.240982056 -9.8019142151 1.357520091e-06 2.1083338261 -4.0444121361 -0.19024480879
          4.3934116364 -7.0259518623 -0.18689717352 0.59331762791 -0.41022154689 0.44049337506
          7.9156317711 -9.1377820969 -0.56551480293 0.72047185898 -1.3445831537 -0.34837698936
          0 0 0 5.7353053093 -7.1646289825 0.2343441844
          1.5819261074 -2.6066362858 0.22929413617 9.5226154327 -9.477645874 1.1608725572e-06
          3.5524168015 -5.5686035156 1.515300454e-07 7.9363260269 -9.1945114136 -0.28186023235
          0.69829487801 -1.4288079739 -0.18116462231 0.32775646448 -0.55731159449 6.6699776369e-08
          6.9916567802 -7.3157377243 0.59323823452 1.0635243654 -1.2900321484 0.49594423175
          4.2392892838 -6.9620990753 7.1518968525e-07 2.1161916256 -4.0576586723 4.2428260372e-07
          3.8973329067 -5.1120362282 0.25948634744 7.9433679581 -9.2135057449 1.0007496485e-06
          0.68602257967 -1.4495391846 1.7769593796e-07 2.8822877407 -4.1238312721 0.36747011542
          11.232435226 -9.7828617096 0.35563528538 6.4603171349 -8.9610786438 -0.49829846621
          0 0 0 1.0432351828 -2.5363881588 -0.32903435826
          6.4664440155 -9.0159959793 -0.24970877171 9.5137710571 -9.4578647614 0.31895488501
          0.32812932134 -0.545971632 0.12702727318 3.410844326 -5.4888410568 0.027937091887
          1.0553318262 -2.6163654327 -0.17198474705 5.7368912697 -7.1142206192 0.48565840721
          3.6899399757 -7.1783881187 -0.38995599747 4.3934135437 -7.025952816 0.18689864874
          1.5549501181 -2.5484473705 0.44895628095 2.1083338261 -4.0444121361 0.19024570286
          2.5003428459 -5.6464810371 -0.35643827915 3.7477836609 -7.1955809593 -0.24940730631
          6.4742627144 -9.0412721634 8.8531908204e-07 7.9363260269 -9.1945104599 0.28186222911
          0.69829487801 -1.4288079739 0.18116497993 2.6030037403 -5.6696896553 -0.22960016131
          1.0543284416 -2.6365704536 3.0971159504e-07 12.347690582 -11.570367813 -0.67756092548
          0 0 0 0.24339216948 -0.52817076445 -0.18450526893
          3.9116501808 -7.237803936 1.0294990034e-06 5.1602258682 -8.8375825882 -0.45947435498
          10.50934124 -11.261568069 -0.60863769054 11.204080582 -9.7290945053 0.71038258076
          0 0 0 0 0 0
          2.6070981026 -5.6314611435 9.1100997679e-07 1.360471487 -3.9816551208 -0.29389595985
          12.368134499 -11.622456551 -0.33877077699 5.0978674889 -8.884355545 -0.24801515043
          10.529694557 -11.315455437 -0.30345824361 9.4870014191 -9.4009504318 0.63971871138
          0.19835029542 -0.59279167652 -0.076815135777 3.5327527523 -5.4886498451 0.40103453398
          0.39909410477 -0.47612437606 0.30240547657 1.3842371702 -4.0449113846 -0.15354202688
          6.4664444923 -9.0159950256 0.24971051514 1.055331707 -2.6163654327 0.1719853431
          8.7720918655 -11.019576073 -0.53825932741 4.5354123116 -7.0374307632 0.44311189651
          2.0781533718 -3.9992194176 0.38987460732 0 0 0
          0.4343624115 -1.3973581791 -0.21497040987 12.375231743 -11.640413284 1.6143179664e-06
          0.19760322571 -0.60565799475 1.0293273789e-07 4.9874176979 -8.8995227814 8.6673361466e-07
          8.7921142578 -11.073740959 -0.2689280808 7.9156322479 -9.1377820969 0.56551671028
          10.536359787 -11.333754539 1.3504550225e-06 0.72047197819 -1.3445831537 0.34837731719
          1.3912808895 -4.0605254173 4.3363931468e-07 0.41856908798 -1.4794933796 -0.11112228036
          3.7477836609 -7.1955809593 0.24940916896 2.6030032635 -5.6696896553 0.22960144281
          2.8000030518 -7.3646821976 -0.3754684031 8.7979183197 -11.093119621 1.1291667761e-06
          0.41045588255 -1.5023834705 2.3440752273e-07 2.8308010101 -7.4022221565 -0.1803150326
          7.1581950188 -10.856677055 -0.47604304552 0 0 0
          0.61666750908 -2.5714318752 -0.20625436306 12.368135452 -11.622456551 0.33877399564
          0.19835031033 -0.59279173613 0.076815336943 5.0978684425 -8.8843545914 0.24801677465
          7.1702504158 -10.912172318 -0.23963716626 6.4603176117 -8.9610776901 0.49830010533
          10.529694557 -11.315454483 0.30346092582 3.7848038673 -8.7500772476 -0.33563444018
          1.6443293095 -5.6207113266 -0.2614787519 1.0432351828 -2.5363881588 0.32903492451
          0.62357908487 -2.6538321972 -0.10650273412 1.3842368126 -4.0449113846 0.15354284644
          3.8847355843 -8.8382444382 -0.22501687706 1.643884778 -5.6889781952 -0.1369972527
          2.922205925 -7.4125590324 7.6591317111e-07 3.6899392605 -7.1783881187 0.3899564743
          8.7921142578 -11.073740005 0.26893031597 2.5003418922 -5.6464805603 0.35643929243
          7.1656208038 -10.936969757 9.1713087613e-07 0.41856908798 -1.4794934988 0.11112274975
          0.62246912718 -2.6778395176 3.5407614973e-07 4.2144284248 -9.064863205 5.4193861843e-07
          1.6575671434 -5.7013654709 4.2068887751e-07 0.78777825832 -4.0076670647 -0.17888569832
          5.6821336746 -10.764938354 -0.40668484569 12.347690582 -11.570366859 0.67756414413
          0 0 0 2.830799818 -7.4022216797 0.18031622469
          0.24339228868 -0.52817082405 0.18450549245 0.8009338975 -4.0859274864 -0.092293806374
          5.1602263451 -8.8375816345 0.45947542787 10.50934124 -11.261566162 0.60864037275
          5.7174057961 -10.820965767 -0.21608740091 13.451442719 -13.49988842 -0.6582390666
          0 0 0 1.3604711294 -3.9816551208 0.29389667511
          13.465267181 -13.554224968 -0.32864779234 0.10519079864 -0.56042253971 -0.080502100289
          11.487569809 -13.196018219 -0.58496034145 7.1702508926 -10.912172318 0.2396389395
          0 0 0 0.62357896566 -2.6538324356 0.10650342703
          11.502558708 -13.252094269 -0.2914005518 0.085359044373 -0.62083476782 -0.033358901739
          3.884734869 -8.8382434845 0.22501760721 1.643884182 -5.6889777184 0.13699807227
          8.7720918655 -11.019575119 0.53826147318 0.80278289318 -4.108063221 3.924337193e-07
          5.7309212685 -10.841513634 6.0017617898e-07 0.43436253071 -1.3973582983 0.2149708569
          3.0609846115 -9.1160049438 -0.36482483149 0.18509735167 -1.4368422031 -0.093938998878
          9.5841722488 -12.957954407 -0.50785106421 1.8326535225 -7.5561709404 -0.3073323071
          13.470692635 -13.572453499 1.8060029561e-06 0 0 0
          3.0548293591 -9.149977684 -0.10876771808 11.507535934 -13.2704916 1.4871366147e-06
          0.084938064218 -0.63382363319 1.3913417263e-07 9.6003265381 -13.013206482 -0.25232303143
          0.17820028961 -1.5148565769 -0.048284381628 1.8657314777 -7.6098070145 -0.16062702239
          2.8000013828 -7.3646817207 0.37546899915 3.1897304058 -9.3197317123 2.0302083215e-07
          0.91863781214 -5.6833434105 -0.15377570689 0.80093365908 -4.0859274864 0.092294566333
          4.152528286 -10.69790554 -0.34881830215 9.6028785706 -13.030100822 1.190211151e-06
          7.1581950188 -10.856676102 0.47604468465 5.7174053192 -10.820965767 0.2160885036
          1.8519893885 -7.6028447151 2.0645295251e-07 0.17456927896 -1.5378665924 3.0259653272e-07
          0.61666744947 -2.5714318752 0.20625501871 13.465267181 -13.554224968 0.32865142822
          7.790792942 -12.819433212 -0.4295591712 0.93284088373 -5.7545104027 -0.075140401721
          0.25824776292 -2.6075510979 -0.08911678195 4.2226791382 -10.750340462 -0.144541502
          3.7848031521 -8.7500762939 0.33563539386 1.6443283558 -5.6207108498 0.26147931814
          0 0 0 0.26146918535 -2.6883451939 -0.045832816511
          11.502559662 -13.252093315 0.29140350223 0.085359051824 -0.62083482742 0.03335916996
          7.8097267151 -12.867097855 -0.21180386841 0.9291613102 -5.776661396 2.4117704811e-07
          4.324640274 -10.782691956 2.0355354025e-07 3.0548279285 -9.1499757767 0.1087680012
          7.8092670441 -12.880457878 9.0219265303e-07 0.26083427668 -2.7131705284 4.4082315753e-07
          9.6003265381 -13.013205528 0.25232538581 0.17820028961 -1.5148565769 0.0482849814
          1.8657306433 -7.6098060608 0.16062754393 0.7877779007 -4.0076670647 0.17888638377
          5.6821336746 -10.764937401 0.40668594837 6.1561646461 -12.798844337 -0.36890482903
          13.451442719 -13.499887466 0.65824264288 0 0 0
          0.32210209966 -4.0495996475 -0.075449235737 0.10519094765 -0.56042265892 0.080502398312
          11.487569809 -13.196017265 0.58496326208 0.9328404665 -5.7545104027 0.075140878558
          4.222679615 -10.750340462 0.14454197884 6.1900529861 -12.820766449 -0.1721701622
          2.0326201916 -9.3330621719 -0.30447426438 0.32985937595 -4.1240205765 -0.037485349923
          0.26146912575 -2.6883454323 0.045833680779 7.8097262383 -12.867096901 0.21180562675
          2.0502710342 -9.3631877899 -0.11948361993 3.2149629593 -10.904387474 -0.35084488988
          1.0121786594 -7.5334868431 -0.088642776012 14.539426804 -15.535607338 -0.6481038928
          0 0 0 12.447770119 -15.229375839 -0.56856673956
          3.0609824657 -9.1160030365 0.36482539773 0.18509751558 -1.4368423223 0.093939572573
          9.5841722488 -12.957952499 0.50785338879 0.99927091599 -7.61043787 -0.077451758087
          3.229118824 -10.936164856 -0.12000666559 1.8326516151 -7.5561695099 0.30733269453
          14.547689438 -15.5929842 -0.32289227843 0 0 0
          0.33004638553 -4.1492233276 4.7439587547e-07 6.2118225098 -12.81811142 5.1170547977e-07
          -0.024298861623 -0.57073742151 0.016876086593 12.456325531 -15.288394928 -0.28346946836
          -0.019856128842 -0.62962764502 0.0069450666197 2.0401239395 -9.4058103561 -4.5130084914e-07
          10.373347282 -14.971477509 -0.48426228762 1.0100035667 -7.6253471375 -3.1141541967e-07
          3.3120567799 -10.990905762 -2.0445982329e-07 14.551068306 -15.611606598 1.9477224669e-06
          0 0 0 -0.045034680516 -1.4496839046 0.020444959402
          10.384815216 -15.030380249 -0.23890611529 12.459191322 -15.307216644 1.5904487327e-06
          0.91863697767 -5.6833429337 0.15377613902 4.1525297165 -10.69790554 0.34881940484
          -0.019648628309 -0.64256751537 1.8277503955e-07 -0.042727932334 -1.5262099504 0.010502256453
          7.7907924652 -12.819431305 0.42956072092 0.25824776292 -2.6075513363 0.089117594063
          0.37081068754 -5.7277269363 -0.054270397872 4.7470545769 -12.84900856 -0.34982654452
          0.32985919714 -4.1240205765 0.037486281246 6.1900525093 -12.820765495 0.17217119038
          0.37525233626 -5.7956576347 -0.028156438842 4.7098727226 -12.832714081 -0.15244413912
          2.0502700806 -9.3631868362 0.11948285997 10.388739586 -15.046111107 1.2199299135e-06
          -0.041775852442 -1.5490548611 3.9187003154e-07 8.3559513092 -14.827026367 -0.38749492168
          0.99927049875 -7.6104373932 0.077451206744 3.2291181087 -10.936164856 0.12000675499
          14.547689438 -15.592983246 0.32289618254 0 0 0
          -0.064643830061 -2.6203844547 0.021382739767 8.3586053848 -14.873397827 -0.19569888711
          12.456325531 -15.288393974 0.2834726572 -0.06428463012 -2.699493885 0.011062043719
          0.37554723024 -5.8173651695 3.0837207987e-07 4.6446752548 -12.785452843 4.7899845868e-08
          -0.01985611394 -0.62962764502 -0.0069447141141 10.384815216 -15.030379295 0.23890854418
          8.3491182327 -14.882612228 7.7293947243e-07 -0.064110070467 -2.7246057987 5.8123794133e-07
          6.1561641693 -12.79884243 0.36890563369 2.2717192173 -11.285510063 -0.2954583168
          -0.042727909982 -1.5262099504 -0.010501481593 0.32210183144 -4.0495996475 0.075450100005
          0.92028015852 -9.5566968918 -0.28350657225 2.2816464901 -11.31450367 -0.098418012261
          2.0326180458 -9.3330602646 0.30447363853 0.93865382671 -9.5771303177 -0.099009878933
          0.37525206804 -5.7956576347 0.028157047927 4.7098731995 -12.832714081 0.15244430304
          3.2149610519 -10.90438652 0.3508439362 1.0121773481 -7.5334863663 0.088642433286
          -0.082784026861 -4.06254673 0.020986085758 6.5866308212 -14.783585548 -0.33977881074
          14.539426804 -15.535605431 0.64810782671 0 0 0
          12.447770119 -15.229373932 0.56856995821 -0.084080159664 -4.1354484558 0.010830421001
          2.1777198315 -11.216067314 -7.8639902767e-07 0.38722828031 -7.6053767204 -0.056414309889
          3.4559326172 -12.888926506 -0.29566937685 6.610127449 -14.821054459 -0.167112872
          -0.024298660457 -0.57073754072 -0.016875714064 0.93830031157 -9.5747203827 -1.3977700064e-06
          8.3586044312 -14.873396873 0.19570043683 -0.064284652472 -2.699493885 -0.01106090378
          3.4910457134 -12.928360939 -0.13465596735 0.38866877556 -7.6626234055 -0.021669685841
          10.373347282 -14.971475601 0.4842647016 -0.084639400244 -4.1596794128 6.8459314662e-07
          6.6206541061 -14.836045265 2.6785681939e-07 -0.045034453273 -1.4496841431 -0.020444212481
          3.5190672874 -12.951778412 -8.2775181909e-07 15.61992836 -17.701969147 -0.64093178511
          0 0 0 0.38847446442 -7.6912989616 -1.7425394105e-07
          15.623858452 -17.758789062 -0.31926345825 0 0 0
          2.281645298 -11.314501762 0.098415985703 13.399401665 -17.39607811 -0.5622638464
          0.37081000209 -5.7277274132 0.054270971566 4.7470545769 -12.849006653 0.34982636571
          -0.15420049429 -0.55833941698 0.11433638632 0.93865358829 -9.5771303177 0.099006950855
          13.402365685 -17.454076767 -0.2806083858 -0.12542189658 -0.61894512177 0.047264877707
          8.3559494019 -14.827023506 0.38749647141 15.624806404 -17.777114868 2.0849786324e-06
          -0.084080263972 -4.1354484558 -0.010829078965 11.188031197 -17.1218853 -0.47859233618
          -0.27636778355 -1.4322487116 0.13499732316 6.6101269722 -14.821053505 0.16711342335
          0 0 0 5.1037082672 -14.81237793 -0.30788379908
          -0.099688194692 -5.7461390495 0.019233303145 -0.064643718302 -2.6203846931 -0.021381666884
          -0.26476630569 -1.5106149912 0.069371685386 11.187445641 -17.183170319 -0.23783257604
          13.40390873 -17.472488403 1.705191039e-06 3.4910449982 -12.928359032 0.13465441763
          -0.10228745639 -5.8074393272 0.0099983280525 5.1095647812 -14.822546959 -0.14239482582
          0.38866832852 -7.6626229286 0.021669344977 -0.12456808984 -0.63203001022 2.3599363885e-07
          1.1500608921 -11.498205185 -0.25199985504 11.189002037 -17.201374054 1.2745226741e-06
          2.2717175484 -11.285507202 0.29545626044 -0.25921714306 -1.5337765217 5.0521850881e-07
          -0.10369683057 -5.8327488899 6.383671689e-07 1.1482633352 -11.528064728 -0.071308910847
          5.0997309685 -14.810557365 -3.3769495644e-07 0.92027896643 -9.5566949844 0.28350371122
          15.623858452 -17.758787155 0.31926766038 8.8763017654 -16.901664734 -0.37939035892
          0.38306942582 -9.6441440582 -0.018243255094 0 0 0
          -0.38973882794 -2.5999331474 0.13232710958 2.3898055553 -13.117995262 -0.28926211596
          -0.39234641194 -2.6810882092 0.068171724677 8.8799562454 -16.959348679 -0.19379204512
          13.402365685 -17.45407486 0.28061178327 0.37968486547 -9.6910762787 -0.05613508448
          2.3868360519 -13.146617889 -0.079762637615 -0.12542188168 -0.61894512177 -0.047264423221
          -0.08278414607 -4.0625472069 -0.020984839648 6.5866293907 -14.783582687 0.33977943659
          1.0559761524 -11.487932205 -1.8130297121e-06 0.38722702861 -7.6053767204 0.056413944811
          3.4559314251 -12.888923645 0.29566827416 8.8863210678 -16.974596024 7.2187577871e-07
          11.187446594 -17.183170319 0.23783515394 0.39678215981 -9.6632671356 -9.8433815765e-07
          -0.26476630569 -1.5106149912 -0.069370694458 -0.39145028591 -2.705987215 7.6193310861e-07
          -0.10228767246 -5.8074393272 -0.0099970800802 5.1095647812 -14.822546005 0.14239418507
          2.2859761715 -13.090542793 -1.5928923176e-06 3.7898430824 -14.90981102 -0.27958193421
          -0.11472305655 -7.6264867783 0.017813446 3.7328383923 -14.880699158 -0.10878102481
          -0.11893677711 -7.6825504303 0.0086961099878 15.619929314 -17.701969147 0.64093595743
          0 0 0 1.1482627392 -11.52806282 0.071305043995
          -0.49088305235 -4.0391817093 0.11760220677 7.0240969658 -16.827812195 -0.31580293179
          -0.50158852339 -4.113796711 0.059493005276 13.399402618 -17.396076202 0.56226730347
          -0.15420025587 -0.55833947659 -0.11433591694 7.0517506599 -16.851566315 -0.1444453001
          8.8799562454 -16.959348679 0.19379356503 0.37968397141 -9.6910762787 0.05613290146
          -0.39234644175 -2.6810882092 -0.068170234561 2.3868353367 -13.146615028 0.079759821296
          3.6074550152 -14.786205292 -8.8557220579e-07 -0.12082516402 -7.6899905205 3.6609299059e-07
          11.18803215 -17.1218853 0.47859498858 -0.27636751533 -1.4322488308 -0.13499636948
          5.1037077904 -14.812376022 0.30788338184 -0.50327253342 -4.1387672424 9.7058318715e-07
          -0.099688626826 -5.7461395264 -0.019232129678 7.0635123253 -16.851556778 4.798768316e-08
          16.685079575 -20.003316879 -0.63305681944 0 0 0
          1.1500601768 -11.49820137 0.25199586153 3.7328388691 -14.880698204 0.10877923667
          0 0 0 14.345788002 -19.703586578 -0.563349545
          0.19000098109 -11.779957771 -0.27465853095 -0.11893703789 -7.6825504303 -0.008695345372
          -0.29331991076 -0.52475893497 0.21854184568 1.3861070871 -13.468785286 -0.26823350787
          16.686841965 -20.055141449 -0.31601783633 8.8763017654 -16.901662827 0.37939217687
          14.345504761 -19.755764008 -0.28115162253 -0.23910358548 -0.58980685472 0.090804696083
          0.38306728005 -9.6441431046 0.018241213635 0.19875921309 -11.801867485 -0.0079227788374
          -0.38973864913 -2.5999331474 -0.13232572377 5.4652438164 -16.802097321 -0.27332219481
          -0.5015886426 -4.113796711 -0.059491116554 2.3898043633 -13.117992401 0.28925943375
          -0.57096207142 -5.7179913521 0.092279523611 7.0517501831 -16.851566315 0.14444555342
          1.3807350397 -13.492834091 -0.055293533951 -0.58324116468 -5.7841119766 0.047195013613
          5.4519267082 -16.790393829 -0.12390170991 12.009841919 -19.439126968 -0.49253982306
          16.686244965 -20.072193146 2.2599301701e-06 -0.52834683657 -1.3893671036 0.2565946281
          0 0 0 12.001925468 -19.491828918 -0.24608272314
          -0.50758045912 -1.4724197388 0.13244459033 14.345684052 -19.772941589 1.875082603e-06
          2.6007723808 -15.064572334 -0.26223635674 0.20309989154 -11.731795311 -2.1934877168e-06
          1.0611023903 -13.166906357 -1.6513361061e-06 -0.13749045134 -9.6605148315 0.017206076533
          -0.2378578186 -0.6028804183 2.9112206335e-07 2.5864841938 -15.072768211 -0.10841827095
          5.4369988441 -16.770055771 -3.9273996322e-07 -0.14102761447 -9.6774358749 0.0061561521143
          -0.58604574203 -5.8059134483 1.0845234328e-06 3.7898440361 -14.909810066 0.27958029509
          12.001654625 -19.509576797 1.4514386066e-06 -0.11472378671 -7.6264877319 -0.017812721431
          -0.49748235941 -1.4957122803 6.1471189383e-07 9.5893507004 -19.188875198 -0.42462345958
          16.686841965 -20.055141449 0.31602236629 2.4608221054 -14.992745399 -1.4957305439e-06
          -0.7540178895 -2.5577325821 0.25041511655 -0.49088308215 -4.0391821861 -0.11760046333
          -0.14127230644 -9.7449388504 -1.1021391089e-07 7.024096489 -16.827810287 0.31580355763
          0 0 0 9.588727951 -19.244371414 -0.20676444471
          -0.76030218601 -2.6412787437 0.12935291231 14.345505714 -19.755764008 0.28115537763
          0.19875788689 -11.801865578 0.0079173063859 1.3807338476 -13.49283123 0.055289644748
          -0.23910357058 -0.58980685472 -0.09080414474 5.4519267082 -16.790391922 0.12390097231
          -0.5832414031 -5.7841119766 -0.047192867845 12.001926422 -19.491828918 0.24608565867
          9.6006937027 -19.26158905 1.0351551509e-06 4.1068878174 -16.844932556 -0.28044083714
          -0.61640381813 -7.594581604 0.079486399889 -0.75905895233 -2.6657528877 9.409144468e-07
          -0.50758045912 -1.4724196196 -0.13244338334 -0.62755739689 -7.6479902267 0.033062800765
          2.5864844322 -15.072767258 0.10841546953 4.0071454048 -16.804937363 -0.12370508164
          -0.14102786779 -9.6774358749 -0.0061564161442 7.5841736794 -18.955450058 -0.25550732017
          16.685079575 -20.003314972 0.63306134939 0 0 0
          -0.96612077951 -3.9887704849 0.2231540978 7.5815629959 -18.934633255 -0.11527914554
          14.345788956 -19.703584671 0.56335330009 -0.98378819227 -4.0670785904 0.11524107307
          0.19000039995 -11.779953957 0.2746528089 3.8466131687 -16.737897873 -8.2596710627e-07