<?xml version="1.0"?>
<VTKFile type="UnstructuredGrid" version="0.1" byte_order="LittleEndian" header_type="UInt32" compressor="vtkZLibDataCompressor">
  <UnstructuredGrid>
    <Piece NumberOfPoints="6405" NumberOfCells="4800">
      <PointData>
        <DataArray type="Float32" Name="DISPLACEMENT" NumberOfComponents="3" ComponentName0="X-DISPLACEMENT" ComponentName1="Y-DISPLACEMENT" ComponentName2="Z-DISPLACEMENT" format="ascii" RangeMin="0" RangeMax="254.95022756">
          0 0 0 0 0 0
          2.1551277637 -1.2636740208 -1.0355093479 0 0 0
          1.560121417 -0.71035081148 -0.8943375349 0 0 0
          1.9572398663 -1.3775727749 -0.42414069176 1.3644137383 -0.8121766448 -0.36162388325
          0 0 0 3.8908894062 -2.0017950535 -1.0811775923
          0 0 0 3.8342728615 -2.1599912643 -0.56520599127
          3.1913824081 -1.4805090427 -0.92700707912 0 0 0
          0 0 0 1.9634311199 -1.4326913357 -8.8260110331e-09
          1.7770437002 -0.35897135735 -0.77676409483 1.3624480963 -0.84568178654 1.0932801331e-08
          3.1380679607 -1.6181550026 -0.47735348344 1.6661477089 -0.49757125974 -0.30692967772
          3.791904211 -2.2088375092 4.3966078778e-08 2.914939642 -0.97135072947 -0.67940503359
          0 0 0 3.0967767239 -1.6654549837 7.3506953413e-08
          2.8668999672 -1.1320035458 -0.35796889663 0 0 0
          5.5585517883 -3.0171539783 -1.0263563395 0 0 0
          1.6496130228 -0.51165664196 1.7454032886e-08 0 0 0
          0 0 0 1.9572399855 -1.3775727749 0.42414066195
          4.6467728615 -2.5647540092 -0.87375491858 5.5788817406 -3.1407284737 -0.5249632597
          2.6103556156 -0.4891217351 -0.27597826719 1.3644138575 -0.81217670441 0.36162391305
          4.6636500359 -2.6866326332 -0.44492059946 2.6089856625 -0.72642993927 -0.1949019134
          2.8311021328 -1.1665437222 9.3662443135e-08 3.8342728615 -2.1599912643 0.56520611048
          0 0 0 0 0 0
          2.6005773544 -0.6672540307 -0.32806491852 4.0701684952 -2.2132158279 -0.7036459446
          5.5672240257 -3.1877253056 1.4227899214e-07 3.1380679607 -1.6181551218 0.47735363245
          4.0537509918 -2.3337743282 -0.35955023766 1.6661478281 -0.49757128954 0.30692973733
          4.6555294991 -2.7279160023 1.739697808e-07 2.5458164215 -0.85916608572 -0.21185007691
          2.5611379147 -0.73064368963 2.8104302885e-08 0 0 0
          7.0878224373 -4.2613511086 -0.91643774509 0 0 0
          5.9699802399 -3.872885704 -0.8083062768 2.8669002056 -1.132003665 0.35796910524
          7.1329722404 -4.3520793915 -0.46589776874 2.1551280022 -1.2636742592 1.0355093479
          0 0 0 0 0 0
          2.541652441 -0.89692980051 1.1465175476e-07 4.0495676994 -2.3736448288 1.8989533146e-07
          1.2126834393 -0.31446686387 -0.79297572374 6.0104279518 -3.9636890888 -0.40801298618
          1.5601215363 -0.71035087109 0.89433765411 3.2507772446 -1.9042767286 -0.58343762159
          0 0 0 5.5788822174 -3.1407284737 0.52496355772
          1.0476335287 -0.32428726554 -0.26725575328 3.215003252 -2.0036706924 -0.28112059832
          4.6636505127 -2.6866326332 0.44492095709 2.6089859009 -0.72642999887 0.19490197301
          5.0836229324 -3.6063914299 -0.71546757221 2.5936510563 -1.0825093985 -0.91822135448
          7.1357512474 -4.3859620094 2.8460590329e-07 3.890889883 -2.0017950535 1.0811777115
          0 0 0 0 0 0
          5.1026906967 -3.7006151676 -0.35834977031 3.191382885 -1.4805091619 0.92700725794
          6.0174574852 -3.9991042614 3.0728426736e-07 2.6495649815 -1.0766919851 -0.40334430337
          1.7770439386 -0.35897141695 0.77676421404 1.0804545879 -0.37707594037 5.3816617829e-09
          3.224812746 -2.0422418118 2.1386266269e-07 4.0537514687 -2.3337743282 0.35955062509
          2.5458166599 -0.85916614532 0.21185031533 5.1036391258 -3.7382650375 3.1329216199e-07
          2.9149401188 -0.97135078907 0.6794052124 2.6667482853 -1.1386708021 1.3762056028e-07
          4.47539711 -3.4406919479 -0.62090182304 7.1329722404 -4.3520793915 0.46589833498
          5.5585522652 -3.0171542168 1.0263566971 0 0 0
          8.4757270813 -5.6239190102 -0.82397055626 0 0 0
          0 0 0 4.1226053238 -2.3090519905 -0.58285927773
          4.491601944 -3.5591480732 -0.27764749527 8.5213241577 -5.693552494 -0.41589841247
          7.1938552856 -5.2535381317 -0.736071527 6.0104279518 -3.9636893272 0.40801361203
          0.96604174376 -0.2093886584 -0.65284627676 0 0 0
          4.6467733383 -2.5647542477 0.87375533581 2.610355854 -0.4891218245 0.2759783268
          4.2313680649 -2.4891850948 -0.0027995149139 1.0476335287 -0.32428726554 0.26725578308
          0.84582716227 -0.26315593719 -0.28420567513 3.2150034904 -2.0036706924 0.28112104535
          7.2371115685 -5.3287630081 -0.37069910765 5.1026911736 -3.700615406 0.35835042596
          4.4806375504 -3.5908472538 3.178882082e-07 8.5306835175 -5.7197055817 4.7297692163e-07
          1.7866927385 -0.90319156647 -0.68631482124 2.6495649815 -1.0766919851 0.40334433317
          0 0 0 6.1299324036 -4.9242143631 -0.64053869247
          2.6005778313 -0.66725409031 0.32806515694 4.070168972 -2.2132158279 0.70364636183
          4.2343740463 -2.4124479294 -6.0157583448e-07 7.247426033 -5.356801033 4.7091054967e-07
          0.85223639011 -0.25805434585 2.8710671174e-08 1.777644515 -0.96898400784 -0.3531229198
          6.1647167206 -5.0112314224 -0.32064685225 7.0878229141 -4.2613515854 0.91643834114
          0 0 0 4.4309916496 -3.5488340855 -0.21213880181
          5.9699807167 -3.8728859425 0.80830693245 1.7668961287 -0.96268618107 5.749699028e-08
          4.4322772026 -3.7428560257 -0.13878577948 6.1710891724 -5.0382843018 4.5082322231e-07
          1.2126835585 -0.31446689367 0.79297578335 4.491601944 -3.5591483116 0.27764815092
          5.3287072182 -4.6405100822 -0.47984915972 8.5213251114 -5.693552494 0.41589933634
          2.5318734646 -2.2038967609 -0.50077825785 3.2507779598 -1.904276967 0.58343809843
          0 0 0 4.2313685417 -2.4891850948 0.002799983602
          5.3219466209 -4.7446856499 -0.2447090596 0.84582722187 -0.263155967 0.28420573473
          2.5900812149 -2.2230343819 -0.29350876808 7.2371120453 -5.3287630081 0.37070006132
          5.0836234093 -3.6063916683 0.71546822786 2.5936515331 -1.0825093985 0.9182215929
          9.761797905 -7.0745782852 -0.75685632229 0 0 0
          4.4183549881 -3.7597119808 3.2056246368e-07 8.3576164246 -6.7190589905 -0.67853915691
          9.7988395691 -7.1347622871 -0.38016203046 0 0 0
          0.67235261202 -0.20679377019 -0.48508012295 8.3932037354 -6.7847557068 -0.33950480819
          5.2953410149 -4.7488341331 4.4062329607e-07 0.56666624546 -0.28317946196 -0.20578280091
          1.7776447535 -0.96898406744 0.35312312841 2.5913205147 -2.2006585598 2.6218305038e-07
          6.1647171974 -5.0112314224 0.32064774632 7.1422595978 -6.4111237526 -0.58984392881
          1.2271368504 -0.91807472706 -0.53854966164 9.8088855743 -7.1567173004 7.0335732971e-07
          0 0 0 1.2109532356 -0.99942344427 -0.28109586239
          7.1668848991 -6.4836502075 -0.2939953804 8.4044694901 -6.8082318306 6.6236742668e-07
          0.5707449913 -0.28947606683 5.7896745176e-08 4.4753975868 -3.4406919479 0.62090247869
          4.4718213081 -4.4103331566 -0.26405450702 8.4757270813 -5.6239190102 0.82397150993
          0 0 0 3.390720129 -3.5410063267 -0.38999426365
          4.4322776794 -3.7428560257 0.13878645003 4.1226062775 -2.3090519905 0.58285969496
          7.1938557625 -5.2535381317 0.73607248068 0.96604192257 -0.20938870311 0.65284639597
          3.4497106075 -3.5801486969 -0.18042425811 4.4158654213 -4.544511795 -0.13575702906
          5.3219470978 -4.7446856499 0.24470998347 2.5900814533 -2.2230346203 0.2935090661
          7.1720070839 -6.5075654984 6.0003083036e-07 1.1950806379 -1.0128809214 1.717004352e-07
          6.0743846893 -6.2115869522 -0.48866000772 1.8229398727 -2.0213167667 -0.47932377458
          1.7866930962 -0.90319168568 0.68631505966 9.7988395691 -7.1347622871 0.38016346097
          6.1299333572 -4.9242143631 0.64053964615 0 0 0
          4.3865003586 -4.5813503265 4.7868616093e-07 3.4735963345 -3.6058187485 3.2394683558e-07
          6.0760760307 -6.2686319351 -0.23358167708 8.393204689 -6.7847557068 0.33950611949
          1.8597239256 -2.0781137943 -0.24417081475 0.56666630507 -0.28317946196 0.20578293502
          4.4309921265 -3.5488340855 0.21213953197 6.0980052948 -6.2768902779 5.5250689002e-07
          7.1668848991 -6.4836506844 0.2939966321 1.2109533548 -0.99942344427 0.28109619021
          1.8604798317 -2.095903635 2.9606036378e-07 10.97209549 -8.6240358353 -0.71089100838
          0 0 0 11.000179291 -8.6800575256 -0.35586118698
          5.3287081718 -4.6405105591 0.479850173 9.4469671249 -8.2943334579 -0.63718020916
          2.5318739414 -2.2038967609 0.50077867508 4.2431817055 -4.7639379501 -0.41691797972
          0.45817947388 -0.2519659698 -0.33590632677 3.4497110844 -3.5801486969 0.18042474985
          4.4158658981 -4.544511795 0.13575804234 0 0 0
          9.4736509323 -8.3535232544 -0.31794533134 4.1605668068 -4.7612605095 -0.040123376995
          0.38109788299 -0.32682815194 -0.14113542438 5.1565513611 -6.1665096283 -0.43996831775
          2.4515228271 -3.3028507233 -0.390755862 9.761797905 -7.0745782852 0.7568576932
          0 0 0 8.3576173782 -6.7190589905 0.67854046822
          11.009230614 -8.6997909546 9.6142014172e-07 2.4932384491 -3.348736763 -0.19797953963
          5.003508091 -6.1547236443 -0.19580550492 0.67235279083 -0.2067938447 0.48508030176
          8.0622110367 -8.0251083374 -0.56066524982 0.84744048119 -0.9251357913 -0.38218820095
          0 0 0 6.0760765076 -6.268632412 0.23358283937
          1.859724164 -2.0781137943 0.2441714257 9.4823188782 -8.3743467331 8.6733649596e-07
          4.240073204 -4.8494873047 -5.030938155e-07 8.0845918655 -8.0859937668 -0.28054353595
          0.82605165243 -1.0139244795 -0.19934041798 0.38113263249 -0.33859080076 1.037758679e-07
          7.1422600746 -6.4111237526 0.58984524012 1.227137208 -0.91807484627 0.53855001926
          4.770509243 -6.0458660126 5.7731614334e-07 2.5042915344 -3.3596148491 4.0316240302e-07
          4.4718222618 -4.4103336334 0.26405569911 8.0929880142 -8.1069393158 7.7470497217e-07
          0.81332027912 -1.03553617 2.5724574471e-07 3.3907213211 -3.5410063267 0.38999518752
          11.000179291 -8.6800575256 0.35586312413 6.8022418022 -7.8259091377 -0.48944485188
          0 0 0 1.2532678843 -1.9357343912 -0.35602673888
          6.8062820435 -7.8962965012 -0.24988345802 9.4736509323 -8.3535232544 0.31794705987
          0.38109791279 -0.32682818174 0.14113563299 4.1605687141 -4.7612609863 0.040124896914
          1.2709915638 -2.0172488689 -0.18696022034 6.074385643 -6.211587429 0.48866128922
          4.3499121666 -6.2798161507 -0.32866889238 5.0035090446 -6.1547241211 0.19580681622
          1.8229403496 -2.0213167667 0.47932437062 2.4932386875 -3.348736763 0.1979804635
          2.9744679928 -4.7451252937 -0.34859541059 4.4638175964 -6.3176732063 -0.26361495256
          6.8049850464 -7.9328613281 6.5090245016e-07 8.0845918655 -8.0859937668 0.28054508567
          0.82605171204 -1.0139244795 0.19934093952 3.0474319458 -4.7546391487 -0.19001963735
          1.2719033957 -2.0377516747 4.3489887958e-07 12.119049072 -10.273769379 -0.67925453186
          0 0 0 0.28554579616 -0.28729209304 -0.20780667663
          4.6088685989 -6.2921061516 2.0926121636e-07 5.6571540833 -7.6616067886 -0.42012435198
          10.467460632 -9.9635915756 -0.60567700863 10.97209549 -8.6240358353 0.71089291573
          0 0 0 0 0 0
          3.062151432 -4.7449979782 6.8123745223e-07 1.6687097549 -3.1955945492 -0.31224364042
          12.139873505 -10.329198837 -0.33955612779 5.6508965492 -7.7605476379 -0.24460761249
          10.488488197 -10.020863533 -0.30233204365 9.4469671249 -8.2943334579 0.63718193769
          0.23580566049 -0.35713613033 -0.086586810648 4.243183136 -4.7639389038 0.41691985726
          0.45817965269 -0.25196605921 0.33590656519 1.7031400204 -3.2581191063 -0.16236686707
          6.8062820435 -7.8962965012 0.24988485873 1.2709915638 -2.0172491074 0.1869610697
          8.9209518433 -9.7146444321 -0.53137284517 5.1565523148 -6.166510582 0.43996992707
          2.4515230656 -3.3028507233 0.39075675607 0 0 0
          0.52630370855 -0.94081103802 -0.23970746994 12.147130966 -10.348200798 1.2123864508e-06
          0.23523712158 -0.37074655294 1.457663501e-07 5.6111440659 -7.8254761696 6.7326016051e-07
          8.9411439896 -9.7736625671 -0.26587691903 8.0622119904 -8.0251083374 0.56066679955
          10.495564461 -10.040462494 1.0594285413e-06 0.8474407196 -0.92513597012 0.38218873739
          1.7137731314 -3.2753074169 6.1118970507e-07 0.509988904 -1.0285742283 -0.1243000254
          4.4638204575 -6.31767416 0.26361608505 3.0474321842 -4.7546396255 0.19002060592
          3.5153319836 -6.3693938255 -0.21656091511 8.9462881088 -9.7952442169 9.338577911e-07
          0.50142753124 -1.0528181791 3.4136400018e-07 3.5149869919 -6.4730482101 -0.11760181189
          7.4960808754 -9.5382938385 -0.45972508192 0 0 0
          0.77373826504 -1.910236001 -0.22917482257 12.139873505 -10.329197884 0.33955854177
          0.23580569029 -0.35713618994 0.086587101221 5.6508984566 -7.7605485916 0.24460889399
          7.5101671219 -9.5981874466 -0.23106609285 6.8022422791 -7.8259091377 0.48944637179
          10.488488197 -10.020863533 0.30233415961 4.3833174706 -7.5189089775 -0.24918046594
          2.0638277531 -4.6439929008 -0.26529800892 1.2532681227 -1.9357345104 0.35602757335
          0.78296941519 -1.9967682362 -0.11907384545 1.7031399012 -3.2581191063 0.16236802936
          4.4997825623 -7.6731324196 -0.16203445196 2.0918936729 -4.7017717361 -0.13230191171
          3.602410078 -6.4612598419 6.2696966552e-07 4.3499140739 -6.2798171043 0.3286703527
          8.9411439896 -9.7736625671 0.26587879658 2.9744682312 -4.7451252937 0.34859645367
          7.5076465607 -9.6202373505 8.298186458e-07 0.5099889636 -1.0285742283 0.12430071086
          0.78301614523 -2.0217766762 5.5323602055e-07 4.8619508743 -7.9960007668 6.1950362351e-07
          2.1050510406 -4.7117648125 7.3382415167e-07 1.0290032625 -3.1412827969 -0.20166289806
          6.1760611534 -9.4424448013 -0.37267366052 12.119049072 -10.273768425 0.67925691605
          0 0 0 3.5149869919 -6.4730491638 0.117602624
          0.28554600477 -0.28729218245 0.20780700445 1.0478522778 -3.2189297676 -0.10402176529
          5.6571550369 -7.6616072655 0.42012560368 10.467461586 -9.9635906219 0.60567909479
          6.2094702721 -9.4917230606 -0.1831317991 13.225269318 -12.023024559 -0.65865880251
          0 0 0 1.6687097549 -3.1955947876 0.31224471331
          13.240419388 -12.080721855 -0.32882642746 0.12918078899 -0.30818814039 -0.093870088458
          11.441454887 -11.719634056 -0.58109176159 7.5101671219 -9.5981874466 0.23106771708
          0 0 0 0.78296941519 -1.9967683554 0.11907493323
          11.457318306 -11.778903008 -0.28948432207 0.10653141886 -0.37403300405 -0.038938723505
          4.4997854233 -7.6731338501 0.16203469038 2.0918931961 -4.7017717361 0.13230329752
          8.9209518433 -9.7146434784 0.53137463331 1.0528964996 -3.2413754463 7.4128257666e-07
          6.2287406921 -9.4941339493 7.3931164479e-07 0.52630394697 -0.94081115723 0.23970814049
          3.7319924831 -7.8155293465 -0.29204908013 0.23771762848 -0.95482963324 -0.10851346701
          9.7286567688 -11.483930588 -0.49953499436 2.4013800621 -6.2675523758 -0.19668985903
          13.246214867 -12.100031853 1.4155866666e-06 0 0 0
          3.6604046822 -7.858587265 -0.023184657097 11.462213516 -11.798351288 1.2059641676e-06
          0.10617938638 -0.387924999 1.8067866847e-07 9.7462759018 -11.542795181 -0.24806171656
          0.23020161688 -1.0394678116 -0.056051582098 2.4339036942 -6.3266057968 -0.10518594086
          3.5153319836 -6.3693938255 0.21656082571 3.8189489841 -8.0735349655 1.1632505448e-06
          1.2704256773 -4.5908560753 -0.16943304241 1.0478521585 -3.218930006 0.10402320325
          4.8644609451 -9.4049186707 -0.32108110189 9.7498140335 -11.561420441 1.040169991e-06
          7.4960808754 -9.5382938385 0.45972660184 6.2094702721 -9.4917221069 0.1831330359
          2.4381864071 -6.3413720131 9.0956638132e-07 0.22625787556 -1.0641387701 4.1043705323e-07
          0.77373844385 -1.9102362394 0.22917585075 13.240419388 -12.080721855 0.32882925868
          8.1293716431 -11.340283394 -0.41987374425 1.292671442 -4.6571416855 -0.087015725672
          0.34912806749 -1.9038251638 -0.10357326269 4.8532972336 -9.420797348 -0.10931161046
          4.3833203316 -7.5189099312 0.24918138981 2.0638270378 -4.6439929008 0.265299052
          0 0 0 0.35316950083 -1.9908554554 -0.053646367043
          11.457318306 -11.778902054 0.28948670626 0.10653145611 -0.37403303385 0.038939081132
          8.1504526138 -11.390935898 -0.20669484138 1.2981091738 -4.6765184402 8.6622134177e-07
          4.8408331871 -9.3592796326 6.9943359904e-07 3.6604034901 -7.858587265 0.023185871542
          8.1529254913 -11.405155182 8.9848930429e-07 0.35310053825 -2.0172719955 6.4928588017e-07
          9.7462759018 -11.542795181 0.24806377292 0.23020166159 -1.0394678116 0.056052397937
          2.4339025021 -6.3266062737 0.10518734157 1.0290030241 -3.1412832737 0.20166419446
          6.1760616302 -9.4424438477 0.3726747036 6.667327404 -11.285944939 -0.35663354397
          13.225269318 -12.023023605 0.65866160393 0 0 0
          0.46436411142 -3.1192917824 -0.090343296528 0.12918104231 -0.3081882 0.093870483339
          11.441455841 -11.719633102 0.58109414577 1.292670846 -4.6571421623 0.087017357349
          4.8532986641 -9.420797348 0.10931271315 6.6868853569 -11.323535919 -0.16873525083
          2.7002539635 -8.0311136246 -0.226622805 0.47356793284 -3.1992387772 -0.046340458095
          0.35316950083 -1.9908554554 0.053647644818 8.1504526138 -11.390934944 0.20669656992
          2.7215409279 -8.0467319489 -0.077019274235 3.868265152 -9.5354118347 -0.27148523927
          1.4859838486 -6.2160968781 -0.14296141267 14.312199593 -13.887742996 -0.64561611414
          0 0 0 12.393519402 -13.583427429 -0.56195902824
          3.731991291 -7.8155283928 0.2920486629 0.2377179265 -0.95482975245 0.10851427168
          9.7286567688 -11.483929634 0.49953696132 1.5051897764 -6.2718782425 -0.069549031556
          3.8918654919 -9.5548963547 -0.13605985045 2.4013779163 -6.2675523758 0.19669051468
          14.322158813 -13.947966576 -0.32149520516 0 0 0
          0.47562992573 -3.2243056297 8.4976272774e-07 6.6995606422 -11.333552361 7.5314903825e-07
          -0.019627740607 -0.31459838152 0.013492540456 12.403990746 -13.64492321 -0.28001126647
          -0.01584257558 -0.37891864777 0.0055337287486 2.7685656548 -8.0720453262 7.6343098954e-07
          10.501646042 -13.330376625 -0.4742615521 1.5157240629 -6.2900419235 8.247170058e-07
          4.0385951996 -9.5675601959 8.0941583747e-07 14.325673103 -13.967393875 1.5444811652e-06
          0 0 0 -0.036293387413 -0.9581900239 0.016854608431
          10.512230873 -13.390880585 -0.23337972164 12.407403946 -13.664363861 1.2915166963e-06
          1.2704248428 -4.5908565521 0.16943444312 4.8644652367 -9.404920578 0.32108184695
          -0.015567611903 -0.39277786016 2.0751038221e-07 -0.03381755203 -1.0416076183 0.0086090462282
          8.1293716431 -11.34028244 0.41987529397 0.34912827611 -1.9038254023 0.10357446223
          0.57458680868 -4.5626983643 -0.07510098815 5.3730392456 -11.270740509 -0.31755709648
          0.47356778383 -3.1992387772 0.046342112124 6.6868853569 -11.323534966 0.16873671114
          0.58452570438 -4.6314015388 -0.038358449936 5.3373847008 -11.30143261 -0.15854112804
          2.72153759 -8.0467300415 0.07702011615 10.514019966 -13.406104088 1.0652057654e-06
          -0.032834660262 -1.0662616491 4.6373881446e-07 8.6945867538 -13.198900223 -0.37100407481
          1.5051887035 -6.2718782425 0.069550536573 3.8918633461 -9.554895401 0.13606156409
          14.322158813 -13.947965622 0.3214982748 0 0 0
          -0.051231592894 -1.8993030787 0.018544705585 8.7050056458 -13.249650955 -0.18533594906
          12.403990746 -13.64492321 0.28001382947 -0.050038568676 -1.9860161543 0.0095035005361
          0.58785682917 -4.6541867256 9.5716347914e-07 5.2752337456 -11.305327415 6.1435406451e-07
          -0.015842534602 -0.37891867757 -0.0055333217606 10.512230873 -13.390879631 0.23338182271
          8.7031621933 -13.263458252 8.5246853132e-07 -0.049539189786 -2.0127613544 7.2379526728e-07
          6.667327404 -11.285943031 0.35663470626 2.9026269913 -9.7593011856 -0.21130509675
          -0.03381748125 -1.0416076183 -0.0086081251502 0.46436402202 -3.1192920208 0.090344823897
          1.6710609198 -8.0065717697 -0.11092172563 2.9048435688 -9.8103027344 -0.060978658497
          2.7002499104 -8.0311126709 0.22662313282 1.6796246767 -8.035036087 -0.062176972628
          0.58452534676 -4.6314020157 0.038360308856 5.3373851776 -11.301431656 0.15854229033
          3.8682618141 -9.535410881 0.27148473263 1.4859821796 -6.2160973549 0.14296258986
          -0.063847795129 -3.1070818901 0.019262144342 7.1289620399 -13.153695107 -0.32362467051
          14.312200546 -13.887742043 0.64561921358 0 0 0
          12.393520355 -13.583425522 0.56196159124 -0.063927337527 -3.1875762939 0.0099009489641
          2.8847150803 -9.7351226807 5.7865298686e-07 0.66323208809 -6.2036318779 -0.061250057071
          4.0146050453 -11.202824593 -0.23853288591 7.1327233315 -13.190876007 -0.15809465945
          -0.019627472386 -0.31459844112 -0.013492097147 1.6821047068 -8.0324735641 4.0870810381e-07
          8.7050056458 -13.249650002 0.18533760309 -0.050038535148 -1.9860161543 -0.0095020793378
          4.0826668739 -11.304925919 -0.10095281899 0.67547357082 -6.2605686188 -0.029311385006
          10.501646042 -13.330375671 0.47426357865 -0.06409651041 -3.2135179043 9.3928269962e-07
          7.1269435883 -13.205741882 5.7875917037e-07 -0.036293040961 -0.9581900835 -0.016853710636
          4.2500524521 -11.481713295 9.9547932564e-08 15.386838913 -15.891633987 -0.63436347246
          0 0 0 0.6747776866 -6.2713942528 8.9332752395e-07
          15.392827988 -15.950105667 -0.31574723125 0 0 0
          2.9048399925 -9.8102998734 0.060978550464 13.333621025 -15.588442802 -0.55269390345
          0.57458627224 -4.5626988411 0.07510265708 5.3730387688 -11.270737648 0.3175573349
          -0.16830718517 -0.30697473884 0.12055788934 1.6796230078 -8.035036087 0.062177758664
          13.337901115 -15.647995949 -0.27571493387 -0.13803587854 -0.37249046564 0.049887724221
          8.6945867538 -13.198899269 0.37100550532 15.39404583 -15.968743324 1.6032882968e-06
          -0.063927389681 -3.1875762939 -0.0098991123959 11.301047325 -15.316327095 -0.46464186907
          -0.31049853563 -0.94905644655 0.14213413 7.1327233315 -13.190875053 0.15809571743
          0 0 0 5.7285289764 -13.152612686 -0.28921103477
          -0.073230206966 -4.5487833023 0.018854191527 -0.051231320947 -1.8993031979 -0.018543360755
          -0.2977835536 -1.0336598158 0.073256976902 11.301938057 -15.37756443 -0.23032096028
          13.339548111 -15.666501999 1.3199886553e-06 4.0826635361 -11.304923058 0.10095281899
          -0.075390614569 -4.6184916496 0.0097502404824 5.731566906 -13.162892342 -0.12803395092
          0.67547291517 -6.2605686188 0.029313100502 -0.13715602458 -0.38633343577 2.2785610554e-07
          1.8494199514 -9.9109630585 -0.15229873359 11.30538559 -15.394287109 1.0417154499e-06
          2.9026226997 -9.7592983246 0.21130517125 -0.29173722863 -1.0583227873 5.0116210559e-07
          -0.076425164938 -4.6402111053 1.0721560102e-06 1.820212245 -9.9668188095 -0.00092042761389
          5.7273077965 -13.143234253 2.0358415043e-07 1.6710579395 -8.006570816 0.11092212051
          15.392827988 -15.950104713 0.31575042009 9.1733093262 -15.105277061 -0.35986274481
          0.68781352043 -8.0026073456 -0.017233228311 0 0 0
          -0.45244479179 -1.8911263943 0.14117135108 3.0663757324 -11.423442841 -0.24148860574
          -0.45369619131 -1.9787905216 0.073018886149 9.1594829559 -15.154829025 -0.18417303264
          13.337901115 -15.647994995 0.27571758628 0.6974952817 -8.036945343 -0.036396786571
          3.03484869 -11.466786385 -0.0188787058 -0.13803583384 -0.37249046564 -0.049887280911
          -0.063847713172 -3.1070821285 -0.019260432571 7.1289615631 -13.153693199 0.32362547517
          1.733856082 -9.9313049316 -7.2692152742e-08 0.66323101521 -6.2036323547 0.061251569539
          4.0146007538 -11.202820778 0.23853260279 9.1490879059 -15.164424896 6.9035343131e-07
          11.301938057 -15.37756443 0.23032303154 0.73548769951 -8.072019577 5.6086867062e-07
          -0.29778346419 -1.0336598158 -0.073255978525 -0.45267826319 -2.0053021908 7.7514329178e-07
          -0.075390793383 -4.6184921265 -0.0097481496632 5.7315659523 -13.162891388 0.12803417444
          3.0469174385 -11.556844711 -9.3093433406e-07 4.4538445473 -13.234431267 -0.25518751144
          -0.080375574529 -6.1955909729 0.016308058053 4.3734436035 -13.18878746 -0.085682690144
          -0.084953457117 -6.2480802536 0.0078175403178 15.386839867 -15.891633034 0.63436663151
          0 0 0 1.820209384 -9.9668169022 0.00091973517556
          -0.59388566017 -3.0994648933 0.13022737205 7.5437307358 -15.050548553 -0.32016044855
          -0.60303044319 -3.1808731556 0.066995285451 13.333621025 -15.588440895 0.55269652605
          -0.16830690205 -0.30697473884 -0.12055741251 7.5428352356 -15.07127285 -0.14825075865
          9.1594820023 -15.154829025 0.18417440355 0.69749420881 -8.036945343 0.036397788674
          -0.45369613171 -1.9787904024 -0.07301736623 3.0348455906 -11.466783524 0.018877947703
          4.2264308929 -13.048057556 -4.1190423872e-07 -0.087044306099 -6.2702794075 1.0848577858e-06
          11.301047325 -15.316325188 0.46464389563 -0.3104981482 -0.94905644655 -0.14213317633
          5.7285280228 -13.152610779 0.28921103477 -0.60538011789 -3.2061481476 1.0089745501e-06
          -0.073230408132 -4.5487833023 -0.018852265552 7.5329241753 -15.067605019 2.2703054015e-07
          16.438905716 -18.037666321 -0.62158793211 0 0 0
          1.8494164944 -9.9109601974 0.15229794383 4.3734416962 -13.188786507 0.085681967437
          0 0 0 14.264583588 -17.743219376 -0.55212122202
          0.62853080034 -10.076584816 -0.1162879616 -0.084953799844 -6.2480802536 -0.0078154364601
          -0.32380139828 -0.28620022535 0.23325960338 2.0195744038 -11.727403641 -0.18731869757
          16.442548752 -18.089097977 -0.3100887835 9.1733083725 -15.105275154 0.35986399651
          14.265825272 -17.794713974 -0.27539235353 -0.26639047265 -0.35488629341 0.097141243517
          0.68781155348 -8.0026073456 0.017233926803 0.59667569399 -10.094993591 0.0030169649981
          -0.45244449377 -1.8911263943 -0.14116992056 6.1186728477 -15.027173996 -0.27278006077
          -0.6030305028 -3.1808731556 -0.066993311048 3.0663721561 -11.423439026 0.24148793519
          -0.72461807728 -4.5375971794 0.11399246007 7.5428347588 -15.071271896 0.14825116098
          1.9995989799 -11.74716568 -0.036672875285 -0.73880368471 -4.608537674 0.058604754508
          6.1024084091 -15.023055077 -0.11822287738 12.104408264 -17.485612869 -0.48178812861
          16.441917419 -18.105890274 1.6224329329e-06 -0.59858000278 -0.93036514521 0.2730243206
          0 0 0 12.094776154 -17.537731171 -0.24105733633
          -0.57613998652 -1.0177820921 0.1413834393 14.266637802 -17.811429977 1.326859433e-06
          3.2782893181 -13.336798668 -0.23089145124 0.7989808321 -9.8911886215 -4.3351397494e-07
          1.7265244722 -11.493933678 -3.4807126781e-07 -0.090194031596 -8.0507564545 0.0074082901701
          -0.26494404674 -0.36834216118 2.4185058578e-07 3.2817194462 -13.357009888 -0.092497929931
          6.0899753571 -15.000957489 -2.4916721486e-07 -0.093408510089 -8.0887355804 0.0027920589782
          -0.74415028095 -4.6316833496 1.1864666476e-06 4.4538426399 -13.234429359 0.25518703461
          12.093472481 -17.556615829 1.0116888234e-06 -0.080376088619 -6.1955914497 -0.016306111589
          -0.56566864252 -1.0418314934 5.2325572142e-07 9.8513231277 -17.245391846 -0.42200800776
          16.442548752 -18.089097977 0.31009203196 3.2082843781 -13.294342995 -8.1744013869e-07
          -0.87767034769 -1.8859592676 0.2683404386 -0.59388554096 -3.0994648933 -0.13022552431
          -0.09373062104 -8.0541343689 8.9738966835e-07 7.5437297821 -15.0505476 0.32016074657
          0 0 0 9.8489151001 -17.301216125 -0.20685103536
          -0.88306802511 -1.973457098 0.13942584395 14.265825272 -17.794713974 0.27539500594
          0.59667348862 -10.094991684 -0.0030184010975 1.9995958805 -11.747161865 0.036671597511
          -0.26639044285 -0.35488626361 -0.097140774131 6.1024079323 -15.023054123 0.1182224378
          -0.73880380392 -4.608537674 -0.058602448553 12.094776154 -17.537731171 0.24105937779
          9.8630828857 -17.321683884 6.7521807523e-07 4.7534689903 -15.054801941 -0.25921824574
          -0.82566028833 -6.1788306236 0.09290830791 -0.88166457415 -1.9983831644 8.0204756614e-07
          -0.57613992691 -1.0177820921 -0.14138241112 -0.84946477413 -6.2357215881 0.045047327876
          3.2817163467 -13.357007027 0.092496588826 4.6475219727 -15.026919365 -0.11613932252
          -0.093408942223 -8.0887355804 -0.0027902016882 8.1296186447 -17.069690704 -0.28716221452
          16.438905716 -18.037664413 0.62159115076 0 0 0
          -1.1622251272 -3.103593111 0.24562081695 8.1378250122 -17.072404861 -0.11928030103
          14.264583588 -17.743219376 0.55212384462 -1.1802116632 -3.1831030846 0.12774963677
          0.62852811813 -10.076581955 0.11628673226 4.4780416489 -14.966553688 -7.4938418493e-07