<?xml version="1.0"?>
<VTKFile type="UnstructuredGrid" version="0.1" byte_order="LittleEndian" header_type="UInt32" compressor="vtkZLibDataCompressor">
  <UnstructuredGrid>
    <Piece NumberOfPoints="6405" NumberOfCells="4800">
      <PointData>
        <DataArray type="Float32" Name="DISPLACEMENT" NumberOfComponents="3" ComponentName0="X-DISPLACEMENT" ComponentName1="Y-DISPLACEMENT" ComponentName2="Z-DISPLACEMENT" format="ascii" RangeMin="0" RangeMax="238.53661642">
          0 0 0 0 0 0
          2.0975036621 -1.2231403589 -1.0132676363 0 0 0
          1.5563796759 -0.68177634478 -0.89488834143 0 0 0
          1.9015097618 -1.3259907961 -0.41672188044 1.3615499735 -0.77440804243 -0.36169436574
          0 0 0 3.7889297009 -1.8693004847 -1.0623383522
          0 0 0 3.7319731712 -2.0168578625 -0.55657476187
          3.1870026588 -1.3499730825 -0.92401540279 0 0 0
          0 0 0 1.9067951441 -1.379655242 -3.6434038009e-08
          1.84392941 -0.32422086596 -0.79716807604 1.3597649336 -0.80746203661 2.4459922976e-09
          3.1344563961 -1.4787238836 -0.47618147731 1.7350018024 -0.45562615991 -0.31360140443
          3.6902780533 -2.063182354 -8.3459205769e-08 3.0113520622 -0.82983511686 -0.68767821789
          0 0 0 3.0932579041 -1.5237652063 -1.7640370942e-08
          2.9658381939 -0.98488420248 -0.3624612689 0 0 0
          5.4298300743 -2.7586727142 -1.0129392147 0 0 0
          1.7192209959 -0.4675680995 6.5576983843e-08 0 0 0
          0 0 0 1.9015097618 -1.3259909153 0.41672182083
          4.6408605576 -2.3085005283 -0.87052953243 5.4490685463 -2.8748924732 -0.51845514774
          2.8246874809 -0.45797488093 -0.2894154191 1.3615499735 -0.77440810204 0.36169436574
          4.6573185921 -2.4237649441 -0.44335711002 2.8275763988 -0.69344598055 -0.2041990459
          2.93013978 -1.0172100067 5.7895203298e-08 3.7319731712 -2.0168578625 0.55657458305
          0 0 0 0 0 0
          2.8168890476 -0.51429110765 -0.33852976561 4.1837825775 -1.9528425932 -0.70891547203
          5.4379453659 -2.919711113 -1.4709235074e-07 3.1344563961 -1.4787240028 0.47618144751
          4.168504715 -2.0682368279 -0.36234724522 1.7350016832 -0.45562624931 0.31360152364
          4.6493139267 -2.4631352425 -6.0722321393e-08 2.7643175125 -0.70260190964 -0.21881632507
          2.7793834209 -0.69389826059 1.6098864819e-07 0 0 0
          6.9418692589 -3.8635241985 -0.90795838833 0 0 0
          5.9604921341 -3.4775190353 -0.80626648664 2.9658381939 -0.98488432169 0.36246138811
          6.9857583046 -3.9495728016 -0.4617022872 2.0975036621 -1.2231404781 1.0132676363
          0 0 0 0 0 0
          2.7613604069 -0.73816883564 1.346690226e-07 4.1647167206 -2.1065781116 3.2208276934e-08
          1.2727487087 -0.20962175727 -0.78648519516 6.0001792908 -3.5638558865 -0.40708550811
          1.5563795567 -0.68177646399 0.89488834143 3.4856441021 -1.6353690624 -0.59537649155
          0 0 0 5.4490685463 -2.8748927116 0.51845484972
          1.0884017944 -0.22746491432 -0.25419455767 3.4529657364 -1.7309883833 -0.28726568818
          4.6573185921 -2.4237651825 0.44335696101 2.8275761604 -0.69344609976 0.20419937372
          5.2046937943 -3.2108027935 -0.7200165987 2.8341007233 -0.88759720325 -0.92341136932
          6.9888300896 -3.9819943905 -2.2485669149e-07 3.7889294624 -1.8693007231 1.0623381138
          0 0 0 0 0 0
          5.2249083519 -3.3012275696 -0.36071631312 3.1870024204 -1.3499734402 0.92401534319
          6.0072035789 -3.5980100632 -1.228143276e-07 2.7664160728 -0.8626614213 -0.30671554804
          1.8439292908 -0.32422107458 0.79716819525 1.10496521 -0.27208074927 1.2929122306e-07
          3.4654231071 -1.7691725492 1.3302937418e-07 4.168504715 -2.0682370663 0.36234730482
          2.7643175125 -0.70260208845 0.21881659329 5.2263045311 -3.3377878666 -1.363062907e-08
          3.0113518238 -0.82983547449 0.68767827749 2.5942754745 -1.0089552402 2.3737420918e-07
          4.7362327576 -3.0428419113 -0.63060468435 6.9857583046 -3.94957304 0.46170181036
          5.4298295975 -2.7586731911 1.0129388571 0 0 0
          8.3189172745 -5.077709198 -0.81950736046 0 0 0
          0 0 0 4.5434708595 -2.0492465496 -0.60112828016
          4.7552294731 -3.1586201191 -0.28191307187 8.3634462357 -5.1447916031 -0.41375175118
          7.1810488701 -4.7088088989 -0.73521614075 6.0001792908 -3.5638561249 0.40708523989
          1.0192028284 -0.074735157192 -0.65674984455 0 0 0
          4.6408605576 -2.3085007668 0.87052941322 2.8246872425 -0.45797511935 0.28941574693
          4.6564555168 -2.2297673225 -0.0049224980175 1.0884016752 -0.22746500373 0.25419479609
          0.88572585583 -0.13579799235 -0.27495834231 3.452965498 -1.7309886217 0.2872659564
          7.2236981392 -4.7815785408 -0.37045350671 5.2249083519 -3.301227808 0.36071628332
          4.7455172539 -3.1891088486 1.2216463574e-07 8.373046875 -5.1701631546 -3.1483853036e-07
          1.9185693264 -0.64215934277 -0.68711549044 2.7664158344 -0.86266154051 0.30671596527
          0 0 0 6.2560825348 -4.3784623146 -0.64327567816
          2.8168888092 -0.51429146528 0.33853003383 4.1837825775 -1.9528429508 0.70891547203
          3.3791851997 -1.6108492613 2.8811791708e-07 7.2339682579 -4.8089632988 -2.0444615245e-07
          0.87138026953 -0.13887515664 1.2430216145e-07 1.8766899109 -0.69963812828 -0.34984314442
          6.2923035622 -4.4639005661 -0.3223990202 6.941868782 -3.863524437 0.90795791149
          0 0 0 4.8618030548 -3.1569280624 -0.21771603823
          5.9604921341 -3.4775192738 0.80626624823 1.8385760784 -0.74755966663 2.368986145e-07
          4.8627300262 -3.348088026 -0.14376156032 6.2994790077 -4.4908771515 -8.7961012696e-08
          1.2727487087 -0.20962190628 0.78648537397 4.7552294731 -3.1586203575 0.28191331029
          5.6004862785 -4.0901632309 -0.48516699672 8.3634462357 -5.1447920799 0.41375109553
          2.7623374462 -1.8433935642 -0.51498311758 3.4856438637 -1.6353695393 0.59537672997
          0 0 0 4.65645504 -2.229767561 0.0049231550656
          5.597073555 -4.1946959496 -0.24819709361 0.88572579622 -0.13579805195 0.27495855093
          2.7319846153 -1.8009114265 -0.33684754372 7.2236981392 -4.7815785408 0.37045308948
          5.2046933174 -3.2108032703 0.7200165987 2.8341007233 -0.88759744167 0.92341166735
          9.6001033783 -6.3747811317 -0.75579202175 0 0 0
          4.846722126 -3.3602936268 2.8593137813e-07 8.3433837891 -6.0193305016 -0.67853248119
          9.6364278793 -6.4342875481 -0.37968578935 0 0 0
          0.71080368757 -0.052293613553 -0.49791008234 8.3787527084 -6.0843734741 -0.33967846632
          5.5717387199 -4.1986427307 4.5121367975e-08 0.60139387846 -0.1301702559 -0.20914837718
          1.8766897917 -0.69963824749 0.34984359145 2.8651990891 -1.6863955259 3.2035546838e-07
          6.2923035622 -4.4639010429 0.32239884138 7.2707486153 -5.7102518082 -0.59143662453
          1.3139688969 -0.61306279898 -0.55613476038 9.6467132568 -6.4560489655 -4.1667902906e-07
          0 0 0 1.2970335484 -0.69416481256 -0.28858169913
          7.2966575623 -5.7830233574 -0.29525583982 8.3901329041 -6.1078152657 -3.0511628779e-07
          0.60334217548 -0.14338468015 1.1309521852e-07 4.7362327576 -3.0428426266 0.63060492277
          4.8941001892 -3.8540737629 -0.26725667715 8.3189163208 -5.0777096748 0.81950670481
          0 0 0 3.7722966671 -3.0591924191 -0.43221572042
          4.8627295494 -3.3480882645 0.14376212656 4.5434703827 -2.0492472649 0.60112893581
          7.1810483932 -4.7088093758 0.73521572351 1.0192028284 -0.074735254049 0.65675008297
          3.7498192787 -3.0577354431 -0.17832629383 4.8429708481 -3.9903666973 -0.13961607218
          5.597073555 -4.1946959496 0.24819718301 2.7319843769 -1.8009115458 0.33684816957
          7.3020606041 -5.8075656891 -1.8862067463e-07 1.2904894352 -0.69901990891 2.2632302432e-07
          6.349709034 -5.5093755722 -0.49098804593 1.9698406458 -1.5635405779 -0.5052767992
          1.9185693264 -0.64215952158 0.68711590767 9.6364278793 -6.4342875481 0.37968495488
          6.256082058 -4.3784627914 0.64327549934 0 0 0
          4.817243576 -4.0297865868 1.8787412159e-07 3.5941791534 -2.9889445305 3.626099101e-07
          6.3567438126 -5.5700287819 -0.2354273051 8.3787527084 -6.084373951 0.33967787027
          2.0112261772 -1.6144739389 -0.25792244077 0.60139387846 -0.1301703006 0.2091486007
          4.861802578 -3.1569285393 0.21771660447 6.3827095032 -5.5815591812 -6.1272714902e-08
          7.2966570854 -5.7830238342 0.29525545239 1.2970335484 -0.69416487217 0.28858214617
          1.9844489098 -1.6254934072 3.2205139178e-07 10.811173439 -7.7704591751 -0.71225357056
          0 0 0 10.839017868 -7.8273620605 -0.35650646687
          5.6004858017 -4.0901637077 0.48516708612 9.4332485199 -7.4393143654 -0.63738584518
          2.7623374462 -1.8433938026 0.51498365402 4.829957962 -4.2172327042 -0.43933957815
          0.4867939353 -0.080829195678 -0.34925410151 3.7498190403 -3.0577356815 0.17832699418
          4.8429708481 -3.9903669357 0.13961644471 0 0 0
          9.4600191116 -7.4994039536 -0.31817734241 4.7655773163 -4.2070794106 -0.05101422593
          0.40728485584 -0.15679515898 -0.14626301825 5.5811948776 -5.4618730545 -0.44488480687
          2.6676037312 -2.7103967667 -0.40268111229 9.6001024246 -6.3747816086 0.75579112768
          0 0 0 8.3433837891 -6.0193309784 0.67853182554
          10.84830761 -7.8473730087 -5.3522370536e-07 2.6984257698 -2.7389481068 -0.21161468327
          5.4428005219 -5.4548816681 -0.19889694452 0.71080374718 -0.052293669432 0.49791029096
          8.1918315887 -7.1668934822 -0.56001341343 0.91162240505 -0.58862739801 -0.39611139894
          0 0 0 6.3567433357 -5.5700292587 0.23542718589
          2.0112261772 -1.6144740582 0.25792306662 9.4687175751 -7.5206413269 -4.2647255327e-07
          4.3229074478 -4.1317200661 2.7680806625e-07 8.2159519196 -7.2295885086 -0.28052440286
          0.88969230652 -0.67842388153 -0.20752997696 0.40863618255 -0.16818961501 1.0278775164e-07
          7.2707481384 -5.7102527618 0.5914362669 1.3139690161 -0.61306291819 0.55613517761
          5.2126231194 -5.3433885574 1.072957545e-07 2.7033731937 -2.7613399029 3.800011541e-07
          4.8940997124 -3.8540742397 0.26725706458 8.224905014 -7.2515244484 -3.0791915151e-07
          0.87449467182 -0.70030415058 2.1192855115e-07 3.7722966671 -3.0591926575 0.43221634626
          10.839017868 -7.8273625374 0.35650539398 7.0760946274 -6.9625825882 -0.48743250966
          0 0 0 1.3572679758 -1.4361046553 -0.36792379618
          7.0824222565 -7.0387973785 -0.24931366742 9.4600191116 -7.4994039536 0.31817647815
          0.40728485584 -0.15679518878 0.14626322687 4.7655773163 -4.2070798874 0.05101500079
          1.375321269 -1.5203777552 -0.19460916519 6.3497085571 -5.509376049 0.49098792672
          4.9332499504 -5.582763195 -0.31998682022 5.4428005219 -5.4548821449 0.19889716804
          1.9698406458 -1.5635406971 0.50527733564 2.6984257698 -2.7389483452 0.21161544323
          3.2480578423 -4.0572991371 -0.32076054811 5.0812959671 -5.6278524399 -0.25942674279
          7.0801010132 -7.0783514977 -1.837259731e-07 8.2159519196 -7.2295885086 0.28052377701
          0.88969230652 -0.67842394114 0.2075303942 3.2773375511 -4.047847271 -0.20021556318
          1.3785750866 -1.5415765047 3.1000712397e-07 11.962526321 -9.2712535858 -0.68156468868
          0 0 0 0.3047760427 -0.10487349331 -0.21765255928
          5.2045898438 -5.5823831558 7.8083826338e-07 6.0808939934 -6.7935972214 -0.40574881434
          10.456203461 -8.9585704803 -0.60539895296 10.811173439 -7.7704596519 0.71225249767
          0 0 0 0 0 0
          3.3279139996 -3.9877450466 4.2954312107e-07 1.8164386749 -2.5461204052 -0.31958240271
          11.983476639 -9.3284702301 -0.34072470665 6.1039032936 -6.914106369 -0.23609554768
          10.477508545 -9.0177488327 -0.30221673846 9.4332475662 -7.4393148422 0.63738495111
          0.25324651599 -0.17643620074 -0.090796008706 4.8299574852 -4.2172336578 0.43934041262
          0.48679402471 -0.08082921803 0.34925431013 1.8538408279 -2.6111643314 -0.16598372161
          7.0824222565 -7.0387978554 0.24931330979 1.375321269 -1.5203777552 0.19460976124
          9.0544366837 -8.7032546997 -0.52814126015 5.5811944008 -5.4618740082 0.44488504529
          2.6676034927 -2.7103970051 0.40268179774 0 0 0
          0.56822562218 -0.58340448141 -0.24925810099 11.990926743 -9.347910881 -6.8250346885e-07
          0.25248783827 -0.19024851918 9.1804892577e-08 6.0917477608 -6.9865088463 -4.3559079899e-08
          9.0752010345 -8.7652664185 -0.26418378949 8.1918306351 -7.166893959 0.56001281738
          10.484547615 -9.037938118 -5.7393225461e-07 0.91162246466 -0.58862745762 0.39611178637
          1.8654716015 -2.6225495338 3.8203441477e-07 0.55216366053 -0.67374271154 -0.12941904366
          5.0812959671 -5.6278529167 0.25942730904 3.2773373127 -4.047847271 0.20021638274
          3.8297698498 -5.4648575783 -0.2534468472 9.0801057816 -8.7878227234 -4.4273988919e-07
          0.54376345873 -0.69859373569 1.9448089006e-07 3.8246421814 -5.5007624626 -0.12555485964
          7.7731862068 -8.5138597488 -0.45005619526 0 0 0
          0.84419387579 -1.3816574812 -0.23601852357 11.983476639 -9.3284702301 0.34072333574
          0.25324651599 -0.17643621564 0.09079618752 6.1039032936 -6.9141068459 0.23609545827
          7.7897377014 -8.5781078339 -0.22595587373 7.0760941505 -6.962583065 0.48743215203
          10.477507591 -9.0177488327 0.30221557617 4.9596815109 -6.6254281998 -0.20709861815
          2.280772686 -3.8437819481 -0.26812791824 1.357268095 -1.4361047745 0.36792433262
          0.85544770956 -1.4710633755 -0.12259782106 1.8538407087 -2.6111643314 0.16598446667
          5.1024136543 -6.8287539482 -0.11697357148 2.3138258457 -3.8926904202 -0.13655026257
          3.7811996937 -5.4805717468 2.7024617566e-07 4.9332499504 -5.5827641487 0.31998747587
          9.0752000809 -8.7652664185 0.26418289542 3.2480576038 -4.057299614 0.32076123357
          7.7880063057 -8.6000757217 -3.1832666991e-07 0.55216372013 -0.67374271154 0.12941943109
          0.85571587086 -1.4963891506 2.906165264e-07 5.4109401703 -7.1488494873 1.0881344537e-07
          2.3148393631 -3.905118227 4.026138356e-07 1.13991642 -2.4417126179 -0.20435959101
          6.5887646675 -8.4095602036 -0.35138124228 11.962525368 -9.2712535858 0.68156331778
          0 0 0 3.8246421814 -5.5007629395 0.1255556345
          0.30477613211 -0.10487349331 0.217652753 1.1611716747 -2.5209169388 -0.10623034835
          6.0808935165 -6.793598175 0.40574875474 10.456202507 -8.958571434 0.60539782047
          6.6195497513 -8.4616651535 -0.16351550817 13.072795868 -10.87706852 -0.66147148609
          0 0 0 1.8164385557 -2.5461204052 0.31958305836
          13.088850975 -10.937540054 -0.32997590303 0.13993112743 -0.12025438249 -0.10001731664
          11.43200779 -10.574355125 -0.57965415716 7.7897372246 -8.5781087875 0.22595523298
          0 0 0 0.85544764996 -1.4710633755 0.1225983873
          11.448126793 -10.635428429 -0.28887194395 0.11628385633 -0.1877848655 -0.041479405016
          5.1024136543 -6.828754425 0.11697384715 2.3138258457 -3.8926906586 0.13655105233
          9.05443573 -8.7032556534 0.52814030647 1.1660351753 -2.5442142487 3.6074385434e-07
          6.6404943466 -8.4612817764 -2.2022089752e-07 0.56822574139 -0.58340448141 0.24925845861
          4.3876276016 -6.8923192024 -0.23694859445 0.26077762246 -0.58521103859 -0.11403658986
          9.8690767288 -10.334301949 -0.49517664313 2.7138762474 -5.2675161362 -0.21038807929
          13.095348358 -10.957540512 -8.7298082008e-07 0 0 0
          4.28992033 -6.9496803284 0.0209463723 11.452765465 -10.654808998 -7.5702615732e-07
          0.11609367281 -0.20188269019 8.02184843e-08 9.885550499 -10.39509201 -0.24496673048
          0.25397780538 -0.67196124792 -0.058961566538 2.7350873947 -5.3185892105 -0.10317003727
          3.8297696114 -5.4648580551 0.25344756246 4.1924262047 -7.0042939186 2.6275412779e-07
          1.4380465746 -3.7071995735 -0.17091067135 1.1611715555 -2.5209171772 0.1062310487
          5.4953427315 -8.402015686 -0.28468930721 9.887342453 -10.414139748 -5.9775180716e-07
          7.7731852531 -8.5138607025 0.45005550981 6.6195492744 -8.4616651535 0.16351509094
          2.7368907928 -5.333878994 3.8134822944e-07 0.25002455711 -0.69713485241 1.7361205096e-07
          0.84419393539 -1.3816574812 0.23601904511 13.088850021 -10.937540054 0.3299741745
          8.4181642532 -10.174303055 -0.41084992886 1.4603644609 -3.7760345936 -0.088059581816
          0.38948774338 -1.3524916172 -0.10646392405 5.4369897842 -8.4072408676 -0.094129480422
          4.9596815109 -6.6254291534 0.20709906518 2.2807724476 -3.8437821865 0.2681286037
          0 0 0 0.39548015594 -1.4417210817 -0.055249996483
          11.448125839 -10.635428429 0.28887042403 0.11628386378 -0.1877848655 0.041479561478
          8.4361305237 -10.229974747 -0.20184902847 1.4677010775 -3.7963154316 3.8932097368e-07
          5.3471841812 -8.3057146072 -1.5912434703e-09 4.2899208069 -6.949681282 -0.0209457241
          8.4378118515 -10.246184349 -4.5147680794e-07 0.39587837458 -1.4687947035 2.6313182389e-07
          9.885550499 -10.39509201 0.24496550858 0.25397780538 -0.67196124792 0.058961909264
          2.7350871563 -5.3185896873 0.10317073017 1.13991642 -2.4417126179 0.20436021686
          6.5887637138 -8.4095611572 0.35138082504 7.0946879387 -10.080194473 -0.34054046869
          13.072795868 -10.87706852 0.66146975756 0 0 0
          0.52976816893 -2.3800616264 -0.090049922466 0.13993121684 -0.12025437504 0.100017488
          11.432006836 -10.574356079 0.57965260744 1.4603642225 -3.776034832 0.088060334325
          5.4369897842 -8.4072418213 0.094129391015 7.0992841721 -10.136169434 -0.16534498334
          3.077641964 -6.8616490364 -0.16975818574 0.54124939442 -2.4626684189 -0.046299282461
          0.39548015594 -1.4417212009 0.055250510573 8.43612957 -10.229974747 0.20184805989
          3.1052052975 -6.8547682762 -0.092873036861 4.4546232224 -8.5081920624 -0.19351311028
          1.7196913958 -5.143430233 -0.14225128293 14.164448738 -12.603774071 -0.64821332693
          0 0 0 12.377122879 -12.301442146 -0.55951011181
          4.3876271248 -6.8923201561 0.23694904149 0.26077774167 -0.58521097898 0.11403692514
          9.8690757751 -10.334302902 0.49517536163 1.7425684929 -5.1964411736 -0.072473533452
          4.5076961517 -8.5326337814 -0.1447160244 2.7138755322 -5.267516613 0.21038867533
          14.175835609 -12.668054581 -0.32279473543 0 0 0
          0.5443443656 -2.488713026 3.3152406331e-07 7.1000256538 -10.157756805 -3.722981603e-07
          -0.015907762572 -0.12612469494 0.010221949778 12.390035629 -12.365731239 -0.27772939205
          -0.012557444163 -0.19146969914 0.0041788807139 3.104878664 -6.8604302406 2.6226737759e-07
          10.641376495 -12.065410614 -0.46652457118 1.7491466999 -5.2124233246 3.4854647879e-07
          4.5953669548 -8.4789381027 -5.1463655382e-07 14.180047035 -12.688656807 -1.1165546994e-06
          0 0 0 -0.029872421175 -0.58406752348 0.014139849693
          10.64945507 -12.121614456 -0.23023433983 12.394856453 -12.385531425 -9.663807532e-07
          1.438046217 -3.7071995735 0.170911327 5.4953422546 -8.4020166397 0.2846891284
          -0.012175610289 -0.2054426223 6.7219396271e-08 -0.026503359899 -0.66868698597 0.0071615502238
          8.4181632996 -10.174303055 0.41084885597 0.38948780298 -1.3524916172 0.10646440834
          0.67477279902 -3.6250793934 -0.0727372244 5.8715314865 -10.007627487 -0.27349957824
          0.54124933481 -2.4626684189 0.046299926937 7.0992836952 -10.136169434 0.16534419358
          0.68733608723 -3.6974074841 -0.037089515477 5.8638296127 -10.087641716 -0.1520446986
          3.1052048206 -6.8547692299 0.092873454094 10.646461487 -12.131599426 -8.0783559042e-07
          -0.025278721005 -0.69366836548 1.486622665e-07 9.0175094604 -11.919463158 -0.37257748842
          1.7425681353 -5.1964416504 0.072474189103 4.5076966286 -8.5326347351 0.14471553266
          14.175835609 -12.668054581 0.32279253006 0 0 0
          -0.040661685169 -1.3360748291 0.018285091966 9.010723114 -11.970856667 -0.17677876353
          12.390035629 -12.365732193 0.2777274847 -0.037248048931 -1.4241752625 0.0092781223357
          0.69113755226 -3.7204012871 3.6396494352e-07 5.8383717537 -10.133666992 -3.9321022882e-07
          -0.012557432055 -0.19146968424 -0.0041787484661 10.64945507 -12.121614456 0.2302326858
          8.9917974472 -11.986579895 -5.8440394923e-07 -0.036074317992 -1.451399684 2.2870216299e-07
          7.094686985 -10.080195427 0.34053960443 3.4565479755 -8.5949831009 -0.10327702761
          -0.026503341272 -0.66868698597 -0.0071612549946 0.52976810932 -2.3800616264 0.090050511062
          1.9854092598 -6.7269835472 -0.11908891797 3.4259471893 -8.684887886 -0.0028487436939
          3.0776410103 -6.8616495132 0.16975823045 1.9890823364 -6.7699189186 -0.053182601929
          0.68733596802 -3.6974074841 0.037090215832 5.8638296127 -10.08764267 0.15204390883
          4.4546232224 -8.5081920624 0.19351312518 1.7196907997 -5.1434307098 0.14225180447
          -0.046708889306 -2.3467311859 0.022848129272 7.5737667084 -11.843585968 -0.3191216886
          14.164447784 -12.603775024 0.64821112156 0 0 0
          12.377121925 -12.301442146 0.55950820446 -0.043479070067 -2.4291119576 0.011551491916
          3.3439443111 -8.4741487503 1.0385766558e-07 0.81538921595 -5.0510654449 -0.056955955923
          4.4885210991 -9.8938999176 -0.15367104113 7.5642266273 -11.886363029 -0.15184736252
          -0.01590767689 -0.12612466514 -0.010221805423 1.9965054989 -6.7804350853 1.9712453536e-07
          9.0107221603 -11.970856667 0.17677749693 -0.037248045206 -1.4241752625 -0.0092776725069
          4.5620865822 -10.036773682 -0.06730157882 0.82552903891 -5.11358881 -0.029288804159
          10.641375542 -12.065410614 0.46652290225 -0.042539216578 -2.4555256367 2.9366520948e-07
          7.5501093864 -11.903282166 -5.8660600644e-07 -0.029872315004 -0.58406752348 -0.014139560983
          4.7640790939 -10.270248413 -4.389402477e-07 15.244124413 -14.478466034 -0.63663095236
          0 0 0 0.82964736223 -5.1332540512 3.382888849e-07
          15.252721786 -14.542892456 -0.31628525257 0 0 0
          3.4259459972 -8.684887886 0.0028485856019 13.311563492 -14.174581528 -0.54559648037
          0.67477250099 -3.6250793934 0.072737850249 5.8715305328 -10.007628441 0.27349886298
          -0.16992875934 -0.12276688963 0.11862012744 1.9890817404 -6.7699193954 0.053182922304
          13.318415642 -14.239386559 -0.27244487405 -0.13990291953 -0.18831625581 0.049000281841
          9.0175075531 -11.919463158 0.37257581949 15.255384445 -14.563008308 -1.3789012883e-06
          -0.043479111046 -2.4291119576 -0.011550919153 11.394989014 -13.908938408 -0.45176804066
          -0.31759750843 -0.57859569788 0.14045248926 7.5642256737 -11.886363983 0.15184617043
          0 0 0 6.2247276306 -11.825870514 -0.26498195529
          -0.04790346697 -3.5777242184 0.027223294601 -0.040661610663 -1.3360748291 -0.018284667283
          -0.30384677649 -0.66328120232 0.07221275568 11.405570984 -13.971352577 -0.22120508552
          13.319965363 -14.259382248 -1.1918522205e-06 4.5620880127 -10.036775589 0.067300692201
          -0.045385524631 -3.6512830257 0.013755436987 6.2183594704 -11.831949234 -0.11122643203
          0.82552874088 -5.1135892868 0.029289450496 -0.13882230222 -0.20219470561 5.3157627633e-08
          2.2464256287 -8.5456638336 -0.079914063215 11.417062759 -13.98893261 -1.024892299e-06
          3.4565453529 -8.5949831009 0.10327669233 -0.29745835066 -0.68814098835 1.1934561428e-07
          -0.044584609568 -3.6750473976 3.329404592e-07 2.2123911381 -8.5230140686 -0.056073598564
          6.2159585953 -11.803104401 -5.3041407e-07 1.9854081869 -6.726984024 0.11908904463
          15.252721786 -14.54289341 0.31628251076 9.5557670593 -13.761515617 -0.3553442359
          0.94097745419 -6.6437931061 -0.044962115586 0 0 0
          -0.46676692367 -1.3283588886 0.1418222487 3.6632151604 -10.168581963 -0.21316061914
          -0.4655700922 -1.4161788225 0.072885781527 9.4971914291 -13.787561417 -0.18569523096
          13.318415642 -14.239387512 0.27244248986 0.9502390027 -6.6946768761 -0.023725522682
          3.5673441887 -10.195302963 0.044529940933 -0.13990290463 -0.18831624091 -0.049000177532
          -0.046708904207 -2.3467311859 -0.022847598419 7.5737652779 -11.843585968 0.31912025809
          2.2113389969 -8.4607000351 -1.4424544759e-07 0.8153886795 -5.0510654449 0.056956477463
          4.4885225296 -9.8939027786 0.15367090702 9.420083046 -13.770550728 -1.0421150591e-06
          11.405570984 -13.971353531 0.22120304406 0.95390623808 -6.7033548355 2.3384635028e-07
          -0.30384674668 -0.66328114271 -0.072212517262 -0.46354091167 -1.4430682659 1.8730690954e-07
          -0.045385636389 -3.6512832642 -0.013754790649 6.2183589935 -11.831949234 0.11122530699
          3.5656862259 -10.225999832 3.5263059317e-07 4.9643688202 -11.895256996 -0.23657186329
          -0.04562971741 -4.997856617 0.030367335305 4.8445496559 -11.831903458 -0.06834834069
          -0.043975204229 -5.0612983704 0.015270941891 15.244123459 -14.478466988 0.63662827015
          0 0 0 2.2123901844 -8.5230150223 0.056072935462
          -0.61831885576 -2.3350393772 0.13504822552 8.0191650391 -13.688521385 -0.32657581568
          -0.62294989824 -2.4170403481 0.069031745195 13.311562538 -14.174582481 0.54559415579
          -0.16992868483 -0.12276685983 -0.11862000823 8.003783226 -13.698805809 -0.16806516051
          9.4971895218 -13.787561417 0.1856931746 0.95023846626 -6.6946773529 0.023725876585
          -0.4655700922 -1.4161788225 -0.072885408998 3.5673408508 -10.195303917 -0.044529277831
          4.6935572624 -11.683235168 -4.5522804726e-07 -0.043382901698 -5.0807881355 3.3454338677e-07
          11.39498806 -13.908939362 0.45176595449 -0.31759741902 -0.57859569788 -0.14045225084
          6.2247271538 -11.82586956 0.26498067379 -0.62382501364 -2.4432048798 2.4672831955e-07
          -0.047903623432 -3.5777244568 -0.027222713456 7.9824295044 -13.68196106 -1.0673295492e-06
          16.30412674 -16.517072678 -0.62036305666 0 0 0
          2.2464239597 -8.545665741 0.079913243651 4.8445496559 -11.831902504 0.06834731251
          0 0 0 14.231142044 -16.219963074 -0.54064720869
          1.0537635088 -8.3858718872 -0.036554288119 -0.043975420296 -5.0612983704 -0.015270305797
          -0.32845500112 -0.11138008535 0.230384022 2.4191601276 -10.368073463 -0.16337653995
          16.310567856 -16.574586868 -0.3087131381 9.5557641983 -13.761514664 0.35534238815
          14.235672951 -16.277605057 -0.2703986764 -0.27145037055 -0.17915557325 0.095440633595
          0.94097644091 -6.6437940598 0.04496236518 1.0520066023 -8.4127521515 -0.038417331874
          -0.46676683426 -1.3283588886 -0.14182189107 6.6100077629 -13.634877205 -0.2783550024
          -0.62294989824 -2.4170403481 -0.069031253457 3.6632111073 -10.168581963 0.21315719187
          -0.76417303085 -3.5610466003 0.12713831663 8.0037822723 -13.698804855 0.16806311905
          2.3965132236 -10.335495949 -0.076639011502 -0.7718167901 -3.6332221031 0.064466930926
          6.5988764763 -13.632375717 -0.12778924406 12.197554588 -15.944205284 -0.46071857214
          16.310167313 -16.592849731 -1.5834782516e-06 -0.61495923996 -0.57070201635 0.26970213652
          0 0 0 12.186997414 -16.011232376 -0.23275654018
          -0.59137201309 -0.65719467402 0.13914586604 14.238279343 -16.296077728 -1.3503882883e-06
          3.7902956009 -11.982001305 -0.22264972329 1.0702738762 -8.4232654572 6.7738056941e-08
          2.3788912296 -10.188049316 -9.5596465144e-07 -0.042207885534 -6.5805754662 0.032708693296
          -0.26986858249 -0.19284197688 3.696469264e-08 3.8100435734 -11.991228104 -0.10456956923
          6.6032299995 -13.605740547 -8.4780594989e-07 -0.040337942541 -6.6332297325 0.013723467477
          -0.77477073669 -3.6561288834 2.9153187597e-07 4.9643688202 -11.895255089 0.23656992614
          12.18086338 -16.037319183 -1.23310258e-06 -0.045630075037 -4.9978570938 -0.030366776511
          -0.57988220453 -0.6817638278 8.7123197545e-08 9.9957056046 -15.677254677 -0.35969242454
          16.310567856 -16.574586868 0.30870997906 3.7635149956 -11.909532547 -1.2524290014e-06
          -0.9073164463 -1.3316168785 0.26703613997 -0.61831879616 -2.3350393772 -0.13504777849
          -0.037352640182 -6.6500368118 3.0063105783e-07 8.0191631317 -13.688520432 0.32657435536
          0 0 0 10.01775074 -15.764525414 -0.20173364878
          -0.90943992138 -1.4194741249 0.13766935468 14.235672951 -16.277605057 0.27039599419
          1.0520057678 -8.4127531052 0.038417309523 2.3965108395 -10.335494995 0.076636448503
          -0.27145034075 -0.17915555835 -0.095440559089 6.5988764763 -13.632374763 0.12778757513
          -0.77181684971 -3.6332221031 -0.064466364682 12.18699646 -16.011234283 0.2327541858
          10.064429283 -15.817442894 -1.1790666576e-06 5.2507519722 -13.635147095 -0.2542784214
          -0.89828699827 -4.9732766151 0.11729901284 -0.90684580803 -1.445740819 1.4165951256e-07
          -0.59137201309 -0.65719467402 -0.13914568722 -0.90661799908 -5.034497261 0.05916974321
          3.8100373745 -11.991223335 0.10456746817 5.1437339783 -13.609353065 -0.12245866656
          -0.040338277817 -6.6332302094 -0.01372291334 8.4623804092 -15.555099487 -0.32534101605
          16.30412674 -16.517074585 0.62035995722 0 0 0
          -1.2106903791 -2.3493587971 0.24797289073 8.546918869 -15.595479965 -0.14943222702
          14.23114109 -16.219964981 0.54064458609 -1.2241290808 -2.4291954041 0.1267555654