<?xml version="1.0"?>
<VTKFile type="UnstructuredGrid" version="0.1" byte_order="LittleEndian" header_type="UInt32" compressor="vtkZLibDataCompressor">
  <UnstructuredGrid>
    <Piece NumberOfPoints="6405" NumberOfCells="4800">
      <PointData>
        <DataArray type="Float32" Name="DISPLACEMENT" NumberOfComponents="3" ComponentName0="X-DISPLACEMENT" ComponentName1="Y-DISPLACEMENT" ComponentName2="Z-DISPLACEMENT" format="ascii" RangeMin="0" RangeMax="231.31837933">
          0 0 0 0 0 0
          2.0809309483 -1.2147737741 -1.0063382387 0 0 0
          1.5547330379 -0.67736113071 -0.89494287968 0 0 0
          1.8856912851 -1.3140977621 -0.41428667307 1.3602752686 -0.76688718796 -0.36166784167
          0 0 0 3.7575180531 -1.8366194963 -1.0554032326
          0 0 0 3.7007648945 -1.9803364277 -0.55337572098
          3.1842427254 -1.3185747862 -0.92272877693 0 0 0
          0 0 0 1.8906685114 -1.367205739 -1.8917901912e-08
          1.8630025387 -0.31887894869 -0.80369853973 1.3585588932 -0.79966253042 -1.1547120593e-08
          3.1321547031 -1.4439693689 -0.47564166784 1.754607439 -0.4476647377 -0.31578019261
          3.6592516899 -2.0256860256 -8.9692768768e-08 3.0398089886 -0.79537785053 -0.69071877003
          0 0 0 3.0910387039 -1.4880950451 -7.5660722132e-08
          2.9949615002 -0.94797021151 -0.36407586932 0 0 0
          5.3872437477 -2.6894505024 -1.006865263 0 0 0
          1.7390700579 -0.45880401134 1.7806666364e-08 0 0 0
          0 0 0 1.8856911659 -1.3140977621 0.41428661346
          4.6364040375 -2.2408368587 -0.86886286736 5.4064750671 -2.8025071621 -0.51551640034
          2.8877444267 -0.454577595 -0.29455181956 1.3602752686 -0.76688718796 0.36166781187
          4.6530003548 -2.3531658649 -0.44253286719 2.8917737007 -0.6889346242 -0.20754449069
          2.9592683315 -0.97932767868 -5.0791662431e-08 3.7007648945 -1.9803365469 0.55337554216
          0 0 0 0 0 0
          2.8813152313 -0.47598001361 -0.34302994609 4.2179784775 -1.8845670223 -0.71108555794
          5.3955621719 -2.8463742733 -2.008299731e-07 3.1321547031 -1.4439693689 0.47564148903
          4.2031421661 -1.9973293543 -0.36348178983 1.7546073198 -0.4476647675 0.31578019261
          4.6451106071 -2.3916521072 -1.8035787264e-07 2.8291845322 -0.66250401735 -0.22164341807
          2.8434479237 -0.68804317713 6.3322445953e-08 0 0 0
          6.8900222778 -3.7509782314 -0.90281832218 0 0 0
          5.9531464577 -3.3667597771 -0.80457961559 2.9949615002 -0.94797027111 0.36407575011
          6.9338703156 -3.8345255852 -0.45915842056 2.0809309483 -1.2147737741 1.0063381195
          0 0 0 0 0 0
          2.8265976906 -0.69715976715 -2.1912040182e-08 4.1995434761 -2.0348570347 -1.4946007809e-07
          1.1426061392 -0.18242847919 -0.72701370716 5.9929270744 -3.4506480694 -0.40626826882
          1.5547327995 -0.67736113071 0.89494282007 3.5587902069 -1.5644993782 -0.60148662329
          0 0 0 5.4064750671 -2.8025071621 0.5155159831
          0.97776973248 -0.19649253786 -0.23283602297 3.5266194344 -1.6574524641 -0.29015430808
          4.6529998779 -2.3531661034 0.44253250957 2.8917734623 -0.6889346838 0.2075446099
          5.2412571907 -3.1006145477 -0.72190117836 2.435990572 -0.83459788561 -0.77037632465
          6.9371161461 -3.866153717 -3.4645751157e-07 3.7575178146 -1.8366196156 1.0554029942
          0 0 0 0 0 0
          5.2620472908 -3.1888403893 -0.36166277528 3.184242487 -1.3185747862 0.92272859812
          6.0000376701 -3.4840672016 -3.1961855029e-07 2.3963398933 -0.85887616873 -0.35608312488
          1.8630023003 -0.3188790381 0.80369853973 0.99118602276 -0.2501269877 -1.9960320063e-09
          3.5395123959 -1.6949062347 -1.0779118043e-07 4.2031416893 -1.9973294735 0.3634814918
          2.8291842937 -0.66250407696 0.22164337337 5.2636079788 -3.2247717381 -2.8135158914e-07
          3.0398085117 -0.79537796974 0.69071865082 2.3799111843 -0.90567475557 -7.7913711038e-08
          4.8213911057 -2.9321343899 -0.63557827473 6.9338703156 -3.8345255852 0.45915770531
          5.3872432709 -2.6894505024 1.0068647861 0 0 0
          8.2591733932 -4.9164810181 -0.81502795219 0 0 0
          0 0 0 3.4981532097 -1.5206662416 -0.85680508614
          4.8413271904 -3.0462903976 -0.28405675292 8.3037614822 -4.9816069603 -0.41151291132
          7.1705160141 -4.5489811897 -0.73335689306 5.9929265976 -3.4506480694 0.40626764297
          0.92330831289 -0.088800832629 -0.60381710529 0 0 0
          4.6364035606 -2.2408370972 0.86886250973 2.8877439499 -0.4545776844 0.29455193877
          3.5689702034 -1.5404326916 -0.33974775672 0.97776967287 -0.19649256766 0.23283600807
          0.79353094101 -0.13959309459 -0.25691756606 3.5266191959 -1.6574525833 0.29015406966
          7.2133412361 -4.6198215485 -0.36957171559 5.262046814 -3.1888406277 0.36166220903
          4.8317317963 -3.0760848522 -2.2395227006e-07 8.3135070801 -5.0063266754 -5.2367687431e-07
          1.7555376291 -0.60061192513 -0.67754536867 2.3963396549 -0.85887622833 0.35608294606
          0 0 0 6.2946381569 -4.2181267738 -0.64398229122
          2.8813147545 -0.47598019242 0.34302988648 4.2179780006 -1.8845671415 0.71108525991
          3.5432538986 -1.5767769814 -1.7515145601e-07 7.2236871719 -4.6465969086 -4.9220710707e-07
          0.791703403 -0.13845150173 -6.7816309013e-08 1.7195830345 -0.65957826376 -0.35627883673
          6.3314623833 -4.3019556999 -0.3228276968 6.890021801 -3.7509784698 0.90281760693
          0 0 0 5.0087561607 -3.047557354 -0.22113353014
          5.9531459808 -3.3667597771 0.80457895994 1.6985795498 -0.67130595446 -2.0744570861e-07
          5.0102639198 -3.238216877 -0.14600080252 6.3387947083 -4.3284425735 -4.4999205784e-07
          1.14260602 -0.18242844939 0.72701358795 4.8413267136 -3.0462903976 0.28405627608
          5.6918029785 -3.9274795055 -0.48758503795 8.3037605286 -4.9816074371 0.41151186824
          2.6076853275 -1.4136099815 -0.61190509796 3.5587897301 -1.5644996166 0.60148632526
          0 0 0 3.568969965 -1.5404328108 0.33974739909
          5.6891765594 -4.0310473442 -0.24950607121 0.7935308814 -0.13959307969 0.25691741705
          2.6415970325 -1.4902060032 -0.31125983596 7.2133412361 -4.6198215485 0.36957073212
          5.241256237 -3.1006147861 0.72190058231 2.4359903336 -0.834597826 0.77037608624
          9.5336284637 -6.1613306999 -0.75153154135 0 0 0
          4.9940962791 -3.2494895458 -1.5325944958e-07 8.3299770355 -5.8068442345 -0.67636913061
          9.5701713562 -6.2191948891 -0.37753003836 0 0 0
          0.67729836702 -0.056496802717 -0.46893370152 8.3655872345 -5.870247364 -0.33865073323
          5.6639666557 -4.0344657898 -3.9820190523e-07 0.56967681646 -0.12601211667 -0.19712974131
          1.7195829153 -0.65957826376 0.35627838969 2.6352818012 -1.4967557192 -3.7829713051e-07
          6.3314619064 -4.3019561768 0.32282680273 7.3112230301 -5.496527195 -0.5913746953
          1.2794542313 -0.51884794235 -0.53037977219 9.580575943 -6.2403855324 -7.2989962518e-07
          0 0 0 1.2470141649 -0.60496884584 -0.27633187175
          7.3374762535 -5.5679707527 -0.29532381892 8.3770618439 -5.8931517601 -6.9526436164e-07
          0.56987851858 -0.13474451005 -1.3354292605e-07 4.8213906288 -2.9321343899 0.63557779789
          5.0416760445 -3.6890368462 -0.27007901669 8.2591733932 -4.9164814949 0.81502687931
          0 0 0 3.3790695667 -2.6842987537 -0.44097542763
          5.010263443 -3.2382171154 0.14600048959 3.4981527328 -1.5206662416 0.8568046093
          7.1705155373 -4.5489811897 0.73335587978 0.92330807447 -0.088800750673 0.60381686687
          3.4208476543 -2.7250823975 -0.21030090749 4.9909157753 -3.8246934414 -0.14129012823
          5.6891765594 -4.031047821 0.24950526655 2.6415970325 -1.4902060032 0.3112590611
          7.3429822922 -5.5921516418 -6.5119809278e-07 1.2276877165 -0.62400102615 -3.4545061567e-07
          6.4453134537 -5.2927284241 -0.49266690016 1.8767894506 -1.33791399 -0.49532315135
          1.7555372715 -0.60061174631 0.67754489183 9.5701713562 -6.2191948891 0.37752857804
          6.2946372032 -4.2181272507 0.64398133755 0 0 0
          4.9652385712 -3.8637571335 -3.4427623063e-07 3.4186937809 -2.7627139091 -5.9167820154e-07
          6.4529633522 -5.3527407646 -0.23639397323 8.3655872345 -5.870247364 0.33864933252
          1.900391221 -1.417090416 -0.25223737955 0.56967675686 -0.12601208687 0.19712947309
          5.0087552071 -3.0475575924 0.22113321722 6.4794254303 -5.3642978668 -5.9531527086e-07
          7.3374757767 -5.5679707527 0.29532250762 1.2470141649 -0.60496878624 0.27633118629
          1.8954242468 -1.4384732246 -6.1785863181e-07 10.738040924 -7.5031003952 -0.70750677586
          0 0 0 10.766343117 -7.5582847595 -0.35417413712
          5.6918020248 -3.927479744 0.48758420348 9.4169168472 -7.1728687286 -0.63487291336
          2.6076850891 -1.4136098623 0.6119043231 4.3772339821 -3.8395111561 -0.50619637966
          0.47739452124 -0.061138469726 -0.33296886086 3.4208476543 -2.7250823975 0.2102997601
          4.9909152985 -3.8246936798 0.14128944278 0 0 0
          9.4439945221 -7.2312574387 -0.31705287099 4.3570652008 -3.8598220348 -0.14379170537
          0.39825478196 -0.13261568546 -0.13916608691 5.7343316078 -5.2427897453 -0.44777357578
          2.5427799225 -2.4185180664 -0.41821169853 9.5336275101 -6.1613306999 0.75153005123
          0 0 0 8.3299760818 -5.8068442345 0.6763677001
          10.775779724 -7.5777349472 -9.6166536423e-07 2.5772733688 -2.4808981419 -0.21038742363
          5.5965456963 -5.2356958389 -0.20045003295 0.677298069 -0.056496683508 0.46893337369
          8.2344884872 -6.8981876373 -0.55977225304 0.89394783974 -0.50249379873 -0.38272714615
          0 0 0 6.4529628754 -5.3527407646 0.23639276624
          1.900391221 -1.417090416 0.25223615766 9.4528493881 -7.2519993782 -9.2567569254e-07
          4.2677206993 -3.9584767818 -7.0883680792e-07 8.2586565018 -6.9595794678 -0.28064540029
          0.86728221178 -0.59132999182 -0.19819068909 0.39709752798 -0.1450766772 -1.8304295679e-07
          7.3112220764 -5.496527195 0.591373384 1.2794538736 -0.51884776354 0.53037905693
          5.3657236099 -5.1241111755 -5.3613041473e-07 2.5741457939 -2.507573843 -9.4443061016e-07
          5.0416750908 -3.6890370846 0.27007833123 8.2678070068 -6.9812088013 -8.8093543127e-07
          0.8525171876 -0.61486810446 -4.5040900432e-07 3.3790695667 -2.6842985153 0.44097429514
          10.766342163 -7.5582847595 0.35417222977 7.1770162582 -6.6881637573 -0.48880448937
          0 0 0 1.3292192221 -1.2623018026 -0.3644220233
          7.1834368706 -6.7643079758 -0.25046989322 9.4439945221 -7.2312574387 0.31705102324
          0.39825472236 -0.13261564076 0.13916571438 4.3570652008 -3.8598225117 0.14379020035
          1.3410817385 -1.3492720127 -0.18852551281 6.4453125 -5.2927284241 0.49266564846
          5.1502175331 -5.3638825417 -0.32286760211 5.5965452194 -5.2356963158 0.20044896007
          1.8767892122 -1.3379137516 0.49532198906 2.5772736073 -2.4808981419 0.21038559079
          3.1619086266 -3.6405189037 -0.35822668672 5.3013811111 -5.4084582329 -0.26256841421
          7.1812348366 -6.8042430878 -8.2338920038e-07 8.2586555481 -6.9595794678 0.28064361215
          0.86728215218 -0.59132993221 0.19818978012 3.1934254169 -3.6849076748 -0.18650202453
          1.3385424614 -1.3741852045 -7.7590988212e-07 11.880476952 -8.9485197067 -0.67559325695
          0 0 0 0.30356192589 -0.075120300055 -0.21237586439
          4.7425031662 -5.0207738876 -9.2711428579e-07 6.2381467819 -6.5119304657 -0.40741729736
          10.435995102 -8.6375274658 -0.60263830423 10.73803997 -7.5031003952 0.7075048089
          0 0 0 0 0 0
          3.2050511837 -3.7134592533 -1.3841849977e-06 1.7804374695 -2.2791030407 -0.3210401237
          11.902179718 -9.0037851334 -0.33801153302 6.263086319 -6.6345834732 -0.23752775788
          10.457978249 -8.6947336197 -0.30121821165 9.4169158936 -7.1728687286 0.63487106562
          0.2521802187 -0.14286132157 -0.087995715439 4.3772339821 -3.8395113945 0.50619482994
          0.47739422321 -0.061138346791 0.33296841383 1.808241725 -2.3540401459 -0.16449271142
          7.1834363937 -6.7643079758 0.25046825409 1.3410817385 -1.3492718935 0.1885239929
          9.1002254486 -8.3793449402 -0.5288412571 5.7343306541 -5.2427897453 0.4477725029
          2.5427801609 -2.418517828 0.4182100594 0 0 0
          0.56998962164 -0.49802273512 -0.2452839762 11.910017014 -9.0228881836 -1.2136058558e-06
          0.25110271573 -0.15653979778 -2.1348499502e-07 6.2526369095 -6.7089986801 -7.4709498676e-07
          9.1212215424 -8.4398708344 -0.26523804665 8.2344875336 -6.8981876373 0.5597704649
          10.465538979 -8.7145748138 -1.1792587884e-06 0.8939474225 -0.50249356031 0.38272625208
          1.8148770332 -2.3786580563 -1.1360683629e-06 0.5513022542 -0.58441001177 -0.1266413033
          5.3013806343 -5.4084587097 0.26256754994 3.193426609 -3.6849076748 0.18649946153
          3.7336363792 -5.0800681114 -0.28882700205 9.126912117 -8.4623680115 -1.1381091554e-06
          0.54150801897 -0.60900944471 -5.1044440852e-07 3.7194159031 -5.1008195877 -0.16281217337
          7.8822393417 -8.1811771393 -0.45272222161 0 0 0
          0.84542608261 -1.2218468189 -0.23689210415 11.902179718 -9.003786087 0.33800911903
          0.25218012929 -0.14286126196 0.087995290756 6.2630858421 -6.63458395 0.23752625287
          7.8987421989 -8.2454881668 -0.22819662094 7.1770153046 -6.6881642342 0.48880282044
          10.457978249 -8.6947336197 0.30121585727 5.1737151146 -6.3394932747 -0.20509450138
          2.2316503525 -3.4969406128 -0.28008246422 1.3292189837 -1.262301445 0.36442059278
          0.85183793306 -1.3094495535 -0.12211504579 1.8082419634 -2.3540399075 0.16449050605
          5.3216218948 -6.546248436 -0.1176148206 2.2612347603 -3.5607950687 -0.13969656825
          3.7927415371 -5.0665178299 -2.3755701477e-06 5.1502165794 -5.3638825417 0.32286670804
          9.1212205887 -8.4398708344 0.26523575187 3.1619100571 -3.6405186653 0.35822474957
          7.8979845047 -8.2675895691 -1.0818686178e-06 0.55130213499 -0.58440995216 0.12664027512
          0.85058796406 -1.3358699083 -8.4627907881e-07 5.6366596222 -6.8694424629 -6.4846608439e-07
          2.2728257179 -3.5747964382 -1.525300263e-06 1.1361683607 -2.2018480301 -0.21178551018
          6.7531394958 -8.0647039413 -0.35251769423 11.880475998 -8.9485197067 0.67559081316
          0 0 0 3.7194201946 -5.1008195877 0.16280835867
          0.30356159806 -0.075120195746 0.21237537265 1.153095603 -2.2814493179 -0.10797002167
          6.2381453514 -6.5119309425 0.40741577744 10.435993195 -8.6375274658 0.60263592005
          6.7850527763 -8.1199016571 -0.16516266763 12.977063179 -10.493981361 -0.65465611219
          0 0 0 1.7804375887 -2.2791025639 0.32103815675
          12.994013786 -10.55251503 -0.32717400789 0.14555746317 -0.084241554141 -0.10128020495
          11.404830933 -10.195669174 -0.57638704777 7.8987417221 -8.2454881668 0.22819446027
          0 0 0 0.85183781385 -1.3094494343 0.12211337686
          11.422643661 -10.255354881 -0.28781199455 0.12092105299 -0.14890615642 -0.041854675859
          5.321621418 -6.546248436 0.11761348695 2.261235714 -3.5607945919 0.13969370723
          9.1002244949 -8.3793449402 0.52883893251 1.1573152542 -2.3059177399 -1.1655884009e-06
          6.8069047928 -8.120800972 -1.003358193e-06 0.5699891448 -0.4980225265 0.24528296292
          4.3328990936 -6.4677033424 -0.29317820072 0.27356487513 -0.49749970436 -0.11712930351
          9.9162168503 -9.9556331635 -0.49789530039 2.6730289459 -4.8628253937 -0.23647609353
          13.000917435 -10.572182655 -1.4777347133e-06 0 0 0
          4.3084583282 -6.5300374031 -0.076395332813 11.428656578 -10.275518417 -1.4496797576e-06
          0.12034132332 -0.16257545352 -2.2962234425e-07 9.9362859726 -10.015124321 -0.24814754725
          0.26450645924 -0.58093601465 -0.06031255424 2.7008266449 -4.9166512489 -0.11830042303
          3.7336425781 -5.0800671577 0.28882524371 4.1817770004 -6.5744514465 -1.5979887849e-06
          1.4312490225 -3.3888423443 -0.18349646032 1.153095603 -2.2814490795 0.10796774179
          5.7067461014 -8.0460739136 -0.27996569872 9.9413366318 -10.034860611 -1.4201765453e-06
          7.8822383881 -8.1811771393 0.45272001624 6.7850522995 -8.1199016571 0.16516065598
          2.6904673576 -4.9397740364 -1.628862492e-06 0.25981140137 -0.60545015335 -5.4000440741e-07
          0.84542566538 -1.2218464613 0.23689049482 12.994012833 -10.55251503 0.32717105746
          8.5380067825 -9.7862358093 -0.4182074964 1.4503529072 -3.4584343433 -0.093504026532
          0.40708500147 -1.2008087635 -0.11330896616 5.6549434662 -8.0591669083 -0.092517547309
          5.1737141609 -6.3394932747 0.20509316027 2.2316515446 -3.4969398975 0.28007999063
          0 0 0 0.40999922156 -1.2871881723 -0.058283049613
          11.422642708 -10.255354881 0.28780910373 0.12092097104 -0.14890612662 0.041854217649
          8.5592956543 -9.8422222137 -0.20762173831 1.4547013044 -3.4813930988 -1.3787802118e-06
          5.5737075806 -7.9639086723 -9.2887933079e-07 4.3084683418 -6.5300378799 0.07638899982
          8.5653333664 -9.8588962555 -1.3743833733e-06 0.40939342976 -1.3137000799 -8.7111789071e-07
          9.9362850189 -10.015124321 0.24814470112 0.26450631022 -0.58093595505 0.060311470181
          2.7008283138 -4.9166502953 0.11829718947 1.1361682415 -2.2018477917 0.21178337932
          6.7531385422 -8.0647039413 0.35251566768 7.2687368393 -9.6765918732 -0.34353476763
          12.977062225 -10.493981361 0.65465313196 0 0 0
          0.54881316423 -2.1571369171 -0.10117530078 0.14555709064 -0.084241472185 0.10127966851
          11.404829979 -10.195669174 0.57638412714 1.4503531456 -3.4584341049 0.093501314521
          5.6549425125 -8.0591669083 0.092515707016 7.2767944336 -9.7344751358 -0.16844581068
          3.0636479855 -6.3579711914 -0.19741651416 0.55704832077 -2.2375450134 -0.051654335111
          0.40999904275 -1.2871880531 0.058281324804 8.5592947006 -9.8422231674 0.2076189816
          3.082624197 -6.3959584236 -0.10222202539 4.7140679359 -8.1519584656 -0.18222655356
          1.7155715227 -4.7438240051 -0.15829469264 14.051847458 -12.150571823 -0.64120233059
          0 0 0 12.336567879 -11.854830742 -0.55512046814
          4.332921505 -6.4677071571 0.29317680001 0.27356433868 -0.49749955535 0.11712821573
          9.9162158966 -9.9556331635 0.49789243937 1.7336702347 -4.8035478592 -0.079470686615
          4.7688293457 -8.1803789139 -0.14055424929 2.6730313301 -4.8628234863 0.23647329211
          14.065059662 -12.214105606 -0.31964376569 0 0 0
          0.55885571241 -2.2634382248 -1.1561568272e-06 7.2805800438 -9.7551765442 -1.2997010117e-06
          -0.0060642794706 -0.085954375565 0.0050387536176 12.351198196 -11.918701172 -0.27619305253
          -0.0045779519714 -0.14951401949 0.0020736274309 3.1008760929 -6.4075717926 -1.2571269963e-06
          10.680887222 -11.628334045 -0.46599155664 1.7423011065 -4.8225603104 -1.37387417e-06
          4.6145687103 -8.0213346481 -3.3836437296e-07 14.070611 -12.234867096 -1.7429882746e-06
          0 0 0 -0.0097920401022 -0.494859308 0.0065678865649
          10.699240685 -11.68933773 -0.23124375939 12.355796814 -11.939015388 -1.7271262323e-06
          1.4312491417 -3.3888418674 0.18349391222 5.7067446709 -8.0460739136 0.27996382117
          -0.0044713602401 -0.16311585903 -2.4094464379e-07 -0.0087524624541 -0.57718247175 0.0033314165194
          8.5380048752 -9.7862358093 0.41820472479 0.40708446503 -1.2008085251 0.11330728233
          0.6935428381 -3.3258407116 -0.087869815528 6.0845890045 -9.591129303 -0.26772138476
          0.55704814196 -2.237544775 0.051652051508 7.2767939568 -9.7344751358 0.16844320297
          0.70321989059 -3.3974211216 -0.044311154634 6.0796675682 -9.6746692657 -0.14885929227
          3.0826251507 -6.3959598541 0.10222026706 10.703779221 -11.707928658 -1.721272838e-06
          -0.0083609241992 -0.60152000189 -5.6123911918e-07 9.1429767609 -11.480841637 -0.38471069932
          1.7336702347 -4.8035478592 0.079467974603 4.768828392 -8.1803789139 0.14055268466
          14.065059662 -12.214105606 0.31964027882 0 0 0
          -0.012055018917 -1.1900683641 0.0074155055918 9.1614131927 -11.534394264 -0.18910545111
          12.351197243 -11.918701172 0.27618959546 -0.011405749246 -1.2757835388 0.0037643220276
          0.70651423931 -3.4207582474 -1.3352582755e-06 6.0588092804 -9.7203502655 -1.1846361758e-06
          -0.0045780437067 -0.14951400459 -0.0020741093904 10.699239731 -11.68933773 0.23124031723
          9.1629981995 -11.55154705 -1.7022965721e-06 -0.011134864762 -1.3023638725 -8.9425390115e-07
          7.2687358856 -9.6765918732 0.34353214502 3.447676897 -7.9776573181 -0.1537759304
          -0.00875264965 -0.57718241215 -0.0033325459808 0.5488126874 -2.1571364403 0.10117310286
          1.9844449759 -6.2366065979 -0.13508208096 3.4324359894 -8.0011854172 -0.081382103264
          3.0636479855 -6.3579735756 0.1974132508 2.0004441738 -6.2870059013 -0.066909514368
          0.70321977139 -3.3974211216 0.044308517128 6.0796670914 -9.6746692657 0.14885690808
          4.7140665054 -8.1519584656 0.18222497404 1.7155714035 -4.7438240051 0.15829208493
          -0.012933257036 -2.1373333931 0.0080175222829 7.7572641373 -11.392048836 -0.32127219439
          14.051845551 -12.150571823 0.64119887352 0 0 0
          12.336565971 -11.854830742 0.55511701107 -0.012420817278 -2.2176201344 0.0040466953069
          3.4376218319 -8.0021924973 -6.4556172674e-07 0.83604675531 -4.6695952415 -0.074782937765
          4.7306575775 -9.4666032791 -0.13646182418 7.7616882324 -11.433547974 -0.15430356562
          -0.0060646841303 -0.085954330862 -0.0050393142737 2.0026116371 -6.3015398979 -1.0105146657e-06
          9.1614122391 -11.534394264 0.18910205364 -0.011405976489 -1.2757835388 -0.0037660975941
          4.8063111305 -9.6176900864 -0.062565334141 0.84561157227 -4.731897831 -0.037720043212
          10.680885315 -11.628334045 0.46598812938 -0.012220150791 -2.2435595989 -1.1782161664e-06
          7.7569198608 -11.444787979 -1.6414292077e-06 -0.0097926389426 -0.4948592484 -0.0065690265037
          5.0064401627 -9.846701622 -1.0183340464e-06 15.118057251 -13.946437836 -0.63018745184
          0 0 0 0.84829944372 -4.7522382736 -1.3460520449e-06
          15.128358841 -14.013196945 -0.31286510825 0 0 0
          3.4324369431 -8.0011873245 0.081380650401 13.254368782 -13.647001266 -0.53576755524
          0.69354248047 -3.3258404732 0.087867289782 6.084587574 -9.5911302567 0.26771897078
          -0.1577963382 -0.079670146108 0.11141118407 2.0004441738 -6.287006855 0.066907212138
          13.264925957 -13.713610649 -0.26696947217 -0.1301844269 -0.14437887073 0.046028159559
          9.1429758072 -11.48084259 0.38470730186 15.131723404 -14.033919334 -1.9973015242e-06
          -0.012421048246 -2.2176201344 -0.004049026873 11.410689354 -13.391560555 -0.44001361728
          -0.2933858633 -0.48853740096 0.13030266762 7.7616872787 -11.433548927 0.15430027246
          0 0 0 6.4430680275 -11.362002373 -0.25623416901
          -0.012237952091 -3.2980852127 0.0086955251172 -0.012055658735 -1.1900682449 -0.0074172439054
          -0.28226792812 -0.57200008631 0.067003369331 11.422505379 -13.456327438 -0.2153287679
          13.268019676 -13.73391819 -1.9990941382e-06 4.8063101768 -9.61769104 0.062563225627
          -0.011667707004 -3.36982584 0.0043362448923 6.4329099655 -11.368357658 -0.10595727712
          0.84561139345 -4.731897831 0.037717364728 -0.12939605117 -0.15804453194 -2.5483876698e-07
          2.233215332 -7.8451023102 -0.11247880012 11.424952507 -13.473247528 -2.0231484541e-06
          3.4476790428 -7.9776601791 0.15377323329 -0.27679491043 -0.59650719166 -5.8796456415e-07
          -0.011465570889 -3.3933858871 -1.3693062328e-06 2.239985466 -7.8894124031 -0.050170499831
          6.4257616997 -11.337498665 -1.5184955373e-06 1.9844450951 -6.2366075516 0.13507968187
          15.128357887 -14.013196945 0.31286111474 9.6719446182 -13.267908096 -0.33288028836
          0.97072577477 -6.1574339867 -0.06227960065 0 0 0
          -0.43151819706 -1.1873871088 0.12813216448 3.9402785301 -9.7410068512 -0.20801243186
          -0.43318516016 -1.2737243176 0.065823160112 9.6834630966 -13.31463623 -0.16991256177
          13.264925003 -13.713610649 0.26696547866 0.97914040089 -6.2119169235 -0.031494371593
          3.8210330009 -9.761136055 0.054881762713 -0.13018453121 -0.14437887073 -0.046028669924
          -0.012933842838 -2.1373333931 -0.0080197779462 7.7572627068 -11.392048836 0.32126891613
          2.2369477749 -7.9062948227 -8.1802227214e-07 0.83604645729 -4.6695952415 0.074780277908
          4.730656147 -9.4666042328 0.13645967841 9.6821641922 -13.329449654 -2.0667953322e-06
          11.422505379 -13.456327438 0.21532472968 0.98211485147 -6.2302350998 -1.2480223859e-06
          -0.28226810694 -0.57200008631 -0.067004553974 -0.43206140399 -1.3002020121 -9.3223087561e-07
          -0.011667926796 -3.36982584 -0.0043389545754 6.4329094887 -11.368357658 0.10595422238
          3.6551356316 -9.6621513367 -7.1238594046e-07 5.1960954666 -11.424577713 -0.22865948081
          -0.010028806515 -4.6355137825 0.009537210688 5.0762834549 -11.362955093 -0.062593095005
          -0.00913203042 -4.6984724998 0.0047038369812 15.118055344 -13.946437836 0.63018339872
          0 0 0 2.2399852276 -7.8894133568 0.050168666989
          -0.57492548227 -2.139033556 0.11713626236 8.2211265564 -13.201203346 -0.30117410421
          -0.58224743605 -2.2192490101 0.059712618589 13.254366875 -13.647001266 0.53576356173
          -0.15779677033 -0.079670131207 -0.11141176522 8.2187671661 -13.226131439 -0.14652101696
          9.6834630966 -13.31463623 0.16990844905 0.97914016247 -6.2119169235 0.031491871923
          -0.43318539858 -1.2737244368 -0.065825015306 3.8210310936 -9.761136055 -0.054883353412
          4.9319081306 -11.229039192 -1.3861125581e-06 -0.0086816390976 -4.7193484306 -1.4537887409e-06
          11.410687447 -13.391560555 0.44000959396 -0.29338648915 -0.48853740096 -0.13030385971
          6.443066597 -11.362002373 0.25623106956 -0.58369958401 -2.2450354099 -1.2308381656e-06
          -0.012238431722 -3.2980852127 -0.0086981542408 8.2190217972 -13.233277321 -2.0494239834e-06
          16.172513962 -15.912246704 -0.6142257452 0 0 0
          2.2332148552 -7.8451037407 0.11247654259 5.0762825012 -11.362956047 0.06259033829
          0 0 0 14.160089493 -15.614992142 -0.52514106035
          1.0915358067 -7.7756638527 -0.051834214479 -0.0091322362423 -4.6984729767 -0.0047067254782
          -0.31615847349 -0.066135920584 0.22267965972 2.4386324883 -9.6170740128 -0.075612522662
          16.180574417 -15.974782944 -0.30486649275 9.6719436646 -13.267908096 0.33287620544
          14.165762901 -15.677567482 -0.26167461276 -0.26179474592 -0.13395485282 0.092256292701
          0.97072547674 -6.1574344635 0.06227697432 1.0999881029 -7.8199315071 -0.027480909601
          -0.43151888251 -1.1873871088 -0.12813396752 6.8449735641 -13.133693695 -0.27135962248
          -0.58224767447 -2.2192492485 -0.059715051204 3.9402761459 -9.7410078049 0.20801047981
          -0.71802270412 -3.302531004 0.10492729396 8.2187662125 -13.226131439 0.14651693404
          2.4383573532 -9.6204309464 -0.074430562556 -0.72668355703 -3.3737032413 0.052885390818
          6.8195166588 -13.134058952 -0.11956578493 12.189889908 -15.338923454 -0.42842659354
          16.181255341 -15.993973732 -2.2332080789e-06 -0.59061431885 -0.48038500547 0.25859120488
          0 0 0 12.186589241 -15.401773453 -0.21251375973
          -0.56992965937 -0.56680226326 0.13343089819 14.167779922 -15.695976257 -2.2566339339e-06
          4.0550355911 -11.535944939 -0.2306651175 1.1048989296 -7.8319759369 -1.1470178833e-06
          2.4516906738 -9.5871753693 -9.1481149411e-07 -0.0058262092061 -6.1201343536 0.010601291433
          -0.26052314043 -0.14761392772 -2.7417124215e-07 4.0657291412 -11.522621155 -0.12905073166
          6.8162722588 -13.113883018 -1.9400456495e-06 -0.0040973019786 -6.1747250557 0.0050060381182
          -0.72955650091 -3.3969135284 -1.4550150809e-06 5.1960940361 -11.424577713 0.22865664959
          12.187922478 -15.416788101 -2.3041764052e-06 -0.010029189289 -4.6355142593 -0.0095400409773
          -0.55938464403 -0.59135901928 -6.2232129494e-07 10.068221092 -15.088032722 -0.30899050832
          16.180574417 -15.974782944 0.3048620224 3.8963007927 -11.320400238 -1.1004208318e-06
          -0.87108820677 -1.1952792406 0.25172999501 -0.57492607832 -2.139033556 -0.11713861674
          -0.003096219385 -6.1926646233 -1.461659167e-06 8.221124649 -13.201203346 0.3011700511
          0 0 0 10.067804337 -15.140255928 -0.16625744104
          -0.87638837099 -1.2827852964 0.12970669568 14.165761948 -15.677567482 0.26167011261
          1.0999879837 -7.8199319839 0.027478553355 2.4383571148 -9.6204319 0.074428655207
          -0.26179483533 -0.13395489752 -0.092256836593 6.8195157051 -13.134059906 0.11956190318
          -0.72668379545 -3.3737032413 -0.052888266742 12.186588287 -15.401773453 0.21250917017
          10.072517395 -15.157576561 -2.3698219138e-06 5.4834461212 -13.123804092 -0.2539704144
          -0.85493761301 -4.6404700279 0.093397341669 -0.87466090918 -1.3091150522 -9.793617437e-07
          -0.56992989779 -0.56680238247 -0.13343214989 -0.86295229197 -4.7019271851 0.046790011227
          4.0657272339 -11.522621155 0.12904840708 5.368206501 -13.084767342 -0.12525902689
          -0.0040974742733 -6.1747250557 -0.005008963868 8.6978569031 -15.001944542 -0.34807497263
          16.172513962 -15.912246704 0.61422121525 0 0 0
          -1.1635580063 -2.1656968594 0.22754074633 8.6908082962 -15.025298119 -0.15520352125