<?xml version="1.0"?>
<VTKFile type="UnstructuredGrid" version="0.1" byte_order="LittleEndian" header_type="UInt32" compressor="vtkZLibDataCompressor">
  <UnstructuredGrid>
    <Piece NumberOfPoints="6405" NumberOfCells="4800">
      <PointData>
        <DataArray type="Float32" Name="DISPLACEMENT" NumberOfComponents="3" ComponentName0="X-DISPLACEMENT" ComponentName1="Y-DISPLACEMENT" ComponentName2="Z-DISPLACEMENT" format="ascii" RangeMin="0" RangeMax="244.76288554">
          0 0 0 0 0 0
          2.1158316135 -1.2386333942 -1.0199302435 0 0 0
          1.5573388338 -0.69384485483 -0.89477348328 0 0 0
          1.9193822145 -1.344661355 -0.41885283589 1.3623024225 -0.78899031878 -0.36168989539
          0 0 0 3.8196904659 -1.9153586626 -1.0671181679
          0 0 0 3.7630546093 -2.0655946732 -0.55875182152
          3.1877298355 -1.3958692551 -0.92474859953 0 0 0
          0 0 0 1.9249048233 -1.398676157 1.7002532715e-08
          1.8232313395 -0.33882793784 -0.79145818949 1.3604741096 -0.82207506895 7.8373956214e-09
          3.1351003647 -1.5267618895 -0.47646024823 1.7136499882 -0.47206318378 -0.31178200245
          3.7211091518 -2.1125025749 5.0465391865e-08 2.9823663235 -0.87900871038 -0.685752213
          0 0 0 3.0938932896 -1.572307229 3.2115451631e-08
          2.9360096455 -1.0352083445 -0.36138629913 0 0 0
          5.4663529396 -2.8440012932 -1.0154159069 0 0 0
          1.6976572275 -0.48452815413 -1.0656321159e-08 0 0 0
          0 0 0 1.9193822145 -1.344661355 0.4188528657
          4.6413927078 -2.3937697411 -0.87111377716 5.486105442 -2.9616031647 -0.51966786385
          2.7594566345 -0.47218447924 -0.28627437353 1.3623024225 -0.78899031878 0.36168992519
          4.6581077576 -2.5102348328 -0.44363552332 2.760948658 -0.70781457424 -0.20186136663
          2.9002792835 -1.0680081844 8.9231058098e-09 3.7630546093 -2.0655946732 0.55875194073
          0 0 0 0 0 0
          2.7516191006 -0.56653809547 -0.33645883203 4.1505446434 -2.0395901203 -0.70802491903
          5.4748153687 -3.006831646 1.0020132635e-07 3.1351003647 -1.5267618895 0.47646030784
          4.1348719597 -2.1557519436 -0.36187770963 1.7136499882 -0.47206315398 0.31178197265
          4.6500945091 -2.5499358177 7.0277600628e-08 2.6982331276 -0.75545501709 -0.21734419465
          2.7128174305 -0.70923775434 -3.5936327691e-08 0 0 0
          6.9803528786 -3.9896929264 -0.90857321024 0 0 0
          5.9609918594 -3.6038122177 -0.80633729696 2.9360096455 -1.0352083445 0.36138632894
          7.0247077942 -4.0761733055 -0.46204069257 2.1158316135 -1.2386333942 1.0199302435
          0 0 0 0 0 0
          2.6949453354 -0.79149454832 -1.2251057946e-08 4.1309862137 -2.1943306923 3.3948531097e-08
          1.2504330873 -0.24448850751 -0.77754092216 6.0009918213 -3.6905722618 -0.40709528327
          1.5573388338 -0.69384479523 0.89477354288 3.4170229435 -1.7241595984 -0.59377789497
          0 0 0 5.486105442 -2.9616031647 0.51966804266
          1.0684577227 -0.26226320863 -0.25148561597 3.3832831383 -1.8200178146 -0.28636115789
          4.6581077576 -2.5102348328 0.44363567233 2.760948658 -0.70781457424 0.20186129212
          5.1696743965 -3.3377897739 -0.7195096612 2.7710366249 -0.95205581188 -0.91236811876
          7.027700901 -4.1087503433 1.6571217998e-07 3.8196907043 -1.9153585434 1.0671182871
          0 0 0 0 0 0
          5.1896009445 -3.4284572601 -0.36046415567 3.1877298355 -1.3958691359 0.92474865913
          6.0080513954 -3.7248492241 1.1850795545e-07 2.7091159821 -0.92776507139 -0.3086103797
          1.8232314587 -0.33882787824 0.79145818949 1.0852804184 -0.30699265003 -2.1560591534e-08
          3.395021677 -1.8580760956 6.4056249194e-09 4.1348719597 -2.1557519436 0.36187779903
          2.698233366 -0.75545495749 0.21734416485 5.1908736229 -3.4650888443 6.5637799196e-08
          2.9823665619 -0.87900865078 0.685752213 2.548210144 -1.0703110695 -1.743126532e-08
          4.6638731956 -3.1706733704 -0.63001596928 7.0247077942 -4.0761733055 0.46204102039
          5.4663529396 -2.8440010548 1.0154160261 0 0 0
          8.3570041656 -5.2444729805 -0.81891697645 0 0 0
          0 0 0 4.4293384552 -2.137616396 -0.59944146872
          4.6821432114 -3.2865161896 -0.2816722393 8.4018182755 -5.3114004135 -0.41348296404
          7.1810593605 -4.8760757446 -0.73487222195 6.0009918213 -3.6905722618 0.40709552169
          1.0046192408 -0.11983525753 -0.65036737919 0 0 0
          4.6413927078 -2.3937697411 0.87111395597 2.7594566345 -0.47218444943 0.28627428412
          4.5414910316 -2.3174257278 -0.0050084791146 1.0684577227 -0.26226320863 0.25148558617
          0.87236738205 -0.17925953865 -0.27278289199 3.3832833767 -1.8200178146 0.2863611877
          7.2238888741 -4.948738575 -0.37024712563 5.1896009445 -3.4284572601 0.36046430469
          4.6721200943 -3.3171813488 1.3392246423e-08 8.4113855362 -5.3367486 2.4749471095e-07
          1.8874869347 -0.72589969635 -0.68317204714 2.7091159821 -0.92776501179 0.30861032009
          0 0 0 6.2196950912 -4.5467863083 -0.64310091734
          2.7516191006 -0.56653803587 0.33645880222 4.1505451202 -2.0395901203 0.70802497864
          3.3406872749 -1.7191070318 -8.7407002525e-08 7.2341756821 -4.9760890007 1.7447693779e-07
          0.85901254416 -0.18213400245 -5.2123354521e-09 1.8461766243 -0.78188478947 -0.34782102704
          6.2557172775 -4.6319446564 -0.32222464681 6.9803528786 -3.989692688 0.90857350826
          0 0 0 4.7466983795 -3.2838256359 -0.21810092032
          5.9609918594 -3.6038119793 0.80633753538 1.8104861975 -0.82622331381 -7.5902457652e-09
          4.7479324341 -3.4754862785 -0.14370067418 6.2628192902 -4.6587672234 9.0631530725e-08
          1.2504332066 -0.24448849261 0.77754092216 4.6821432114 -3.2865161896 0.28167226911
          5.5273766518 -4.2601742744 -0.48534917831 8.4018182755 -5.3113999367 0.41348344088
          2.7133960724 -1.958070755 -0.5153990984 3.4170231819 -1.7241594791 0.59377789497
          0 0 0 4.5414910316 -2.3174257278 0.0050084544346
          5.5232625008 -4.363799572 -0.24822597206 0.87236738205 -0.17925952375 0.27278289199
          2.6869494915 -1.9166090488 -0.33524981141 7.2238888741 -4.948738575 0.37024745345
          5.1696748734 -3.3377895355 0.71950984001 2.7710368633 -0.95205575228 0.91236805916
          9.6362810135 -6.5806665421 -0.75464451313 0 0 0
          4.7327547073 -3.4886324406 -4.452061475e-08 8.342209816 -6.2260856628 -0.67802685499
          9.6726455688 -6.6397385597 -0.37915042043 0 0 0
          0.70510464907 -0.10034742951 -0.49459826946 8.3775835037 -6.2907538414 -0.33938738704
          5.4975185394 -4.3672509193 1.7700973132e-08 0.59584003687 -0.17689104378 -0.20784461498
          1.8461766243 -0.78188472986 0.34782099724 2.81208992 -1.8062777519 -4.4493591034e-09
          6.2557172775 -4.6319446564 0.32222482562 7.2329630852 -5.9185366631 -0.59143328667
          1.3036302328 -0.70270812511 -0.55441844463 9.6829128265 -6.6613936424 3.4530512494e-07
          0 0 0 1.2852867842 -0.78244799376 -0.28796190023
          7.2587389946 -5.9907588959 -0.29518535733 8.3889608383 -6.3140726089 2.3773054636e-07
          0.59779822826 -0.18961729109 1.7198686919e-08 4.6638731956 -3.1706733704 0.63001602888
          4.7819590569 -4.0247144699 -0.26887476444 8.3570041656 -5.2444725037 0.81891745329
          0 0 0 3.6890823841 -3.213237524 -0.42816069722
          4.7479324341 -3.4754860401 0.14370059967 4.4293384552 -2.1376161575 0.59944134951
          7.1810593605 -4.8760757446 0.73487251997 1.00461936 -0.11983527243 0.65036737919
          3.6732459068 -3.2124414444 -0.18302610517 4.7297673225 -4.1597166061 -0.13990755379
          5.5232625008 -4.363799572 0.24822601676 2.6869497299 -1.9166089296 0.33524978161
          7.2640786171 -6.0150604248 1.1965924784e-07 1.278083086 -0.78740859032 4.2775486264e-08
          6.2755122185 -5.7202768326 -0.49178409576 1.954385519 -1.6940953732 -0.50794643164
          1.8874870539 -0.72589969635 0.68317204714 9.6726446152 -6.6397380829 0.37915110588
          6.2196950912 -4.5467863083 0.64310115576 0 0 0
          4.7034211159 -4.1986699104 -2.8024841114e-08 3.5343897343 -3.1447057724 -9.1546624503e-08
          6.2822766304 -5.7796087265 -0.23551832139 8.3775835037 -6.2907538414 0.33938783407
          1.9934207201 -1.7434877157 -0.25899559259 0.59584003687 -0.17689104378 0.20784464478
          4.7466983795 -3.2838253975 0.21810086071 6.3082313538 -5.7903761864 -1.5714300972e-09
          7.2587389946 -5.9907588959 0.29518562555 1.2852867842 -0.78244799376 0.28796198964
          1.9684003592 -1.75471735 6.0389162115e-08 10.844907761 -8.0130691528 -0.71130537987
          0 0 0 10.872562408 -8.0695962906 -0.35608375072
          5.5273766518 -4.2601742744 0.48534926772 9.4304866791 -7.6829257011 -0.63700902462
          2.7133963108 -1.958070755 0.515399158 4.6851472855 -4.3905491829 -0.44250464439
          0.48573568463 -0.12776687741 -0.34785559773 3.6732461452 -3.212441206 0.18302606046
          4.7297673225 -4.1597166061 0.13990752399 0 0 0
          9.4571027756 -7.7426700592 -0.31796202064 4.6204895973 -4.3795003891 -0.051751628518
          0.4060215354 -0.20316646993 -0.14574447274 5.4725413322 -5.6761956215 -0.44739022851
          2.6544606686 -2.8833024502 -0.4095543623 9.6362810135 -6.5806665421 0.75464516878
          0 0 0 8.342209816 -6.226085186 0.67802727222
          10.88188076 -8.0895137787 4.4706220592e-07 2.6819431782 -2.9142618179 -0.21524424851
          5.3319993019 -5.6662096977 -0.19998529553 0.70510470867 -0.10034746677 0.49459829926
          8.1519889832 -7.4126386642 -0.56013441086 0.9109672904 -0.67924815416 -0.39630651474
          0 0 0 6.2822766304 -5.7796087265 0.2355183661
          1.9934206009 -1.7434877157 0.25899574161 9.4657802582 -7.7637991905 2.9983203831e-07
          4.2531862259 -4.3404374123 -1.1140449629e-07 8.1760978699 -7.4747800827 -0.28054428101
          0.88776022196 -0.76859909296 -0.20760139823 0.4071662426 -0.21453879774 4.6853767088e-08
          7.2329630852 -5.9185361862 0.59143352509 1.3036302328 -0.70270818472 0.55441850424
          5.0995078087 -5.5519657135 -1.5083465144e-08 2.6872937679 -2.9314563274 8.7367958201e-08
          4.7819590569 -4.0247144699 0.26887482405 8.1850805283 -7.4964818954 1.5617136739e-07
          0.87251996994 -0.79043376446 1.0263707395e-07 3.6890826225 -3.2132372856 0.42816084623
          10.872562408 -8.0695962906 0.35608464479 7.0005569458 -7.2116751671 -0.48841640353
          0 0 0 1.3584221601 -1.5699880123 -0.37153938413
          7.0068073273 -7.2868461609 -0.24974484742 9.4571027756 -7.7426695824 0.31796261668
          0.40602150559 -0.20316648483 0.14574456215 4.6204910278 -4.3795008659 0.051751431078
          1.3743399382 -1.6545437574 -0.19635276496 6.2755126953 -5.7202768326 0.49178421497
          4.7916445732 -5.7969169617 -0.32378533483 5.3319997787 -5.6662101746 0.19998523593
          1.954385519 -1.6940953732 0.50794655085 2.6819429398 -2.9142618179 0.21524439752
          3.2776396275 -4.2642946243 -0.35894837976 4.9384036064 -5.8413505554 -0.26058629155
          7.0044670105 -7.3259744644 7.9823276877e-09 8.1760978699 -7.4747800827 0.28054460883
          0.88776022196 -0.76859909296 0.20760159194 3.2977414131 -4.2482838631 -0.18344669044
          1.3771054745 -1.6751487255 1.5587389157e-07 11.994787216 -9.5481081009 -0.68156856298
          0 0 0 0.30509588122 -0.14942955971 -0.21686764061
          5.0651082993 -5.7973222733 -1.0103764936e-07 5.9715914726 -7.046356678 -0.40831550956
          10.451816559 -9.2362070084 -0.6053763032 10.844907761 -8.0130681992 0.71130627394
          0 0 0 0 0 0
          3.3044977188 -4.2200937271 1.9801463225e-07 1.8217178583 -2.7215251923 -0.3270278573
          12.015417099 -9.6053524017 -0.34068113565 5.9941797256 -7.1647343636 -0.23725022376
          10.472941399 -9.2953529358 -0.30223587155 9.4304866791 -7.6829252243 0.63700962067
          0.25343704224 -0.2211189121 -0.0904898718 4.6851482391 -4.3905491829 0.44250482321
          0.48573571444 -0.12776693702 0.34785568714 1.8573732376 -2.7882993221 -0.16873386502
          7.0068073273 -7.2868461609 0.24974487722 1.374339819 -1.6545437574 0.19635306299
          9.0115327835 -8.9833469391 -0.52829355001 5.4725418091 -5.6761960983 0.44739028811
          2.6544604301 -2.8833024502 0.40955448151 0 0 0
          0.57036966085 -0.67250072956 -0.24937146902 12.022888184 -9.6248550415 5.2330909739e-07
          0.25259724259 -0.2350153327 7.889776299e-08 5.9814491272 -7.2362055779 -1.5757439087e-07
          9.032494545 -9.0450849533 -0.26428434253 8.1519889832 -7.4126386642 0.56013470888
          10.480034828 -9.3155460358 3.3751422279e-07 0.9109672308 -0.67924827337 0.39630669355
          1.8650757074 -2.803113699 1.8875807939e-07 0.55340236425 -0.7633510828 -0.12950779498
          4.9384050369 -5.8413515091 0.26058596373 3.2977409363 -4.2482838631 0.18344689906
          3.9629223347 -5.8235044479 -0.17920993268 9.0375509262 -9.0675468445 1.8495144616e-07
          0.5447961092 -0.78827530146 1.6487952337e-07 3.9304494858 -5.9009437561 -0.10471556336
          7.69414711 -8.7987737656 -0.45078393817 0 0 0
          0.84757250547 -1.5167551041 -0.23807388544 12.015416145 -9.6053524017 0.34068217874
          0.25343704224 -0.2211189419 0.090490020812 5.9941802025 -7.1647348404 0.23724998534
          7.7111253738 -8.8621177673 -0.22644588351 7.0005569458 -7.2116746902 0.48841649294
          10.472941399 -9.2953519821 0.30223655701 4.8248195648 -6.8848867416 -0.21376316249
          2.2821242809 -4.0735034943 -0.27021083236 1.3584219217 -1.5699880123 0.37153965235
          0.85755831003 -1.6072825193 -0.12377917767 1.85737288 -2.7882995605 0.16873420775
          4.9631886482 -7.0833516121 -0.11930502951 2.3115246296 -4.1282701492 -0.13744069636
          3.6927843094 -5.7192864418 4.3766753777e-08 4.7916455269 -5.7969174385 0.32378515601
          9.0324935913 -9.0450839996 0.26428470016 3.2776389122 -4.2642946243 0.35894811153
          7.7097115517 -8.8837327957 3.2215226042e-08 0.55340230465 -0.7633510828 0.1295081079
          0.85730212927 -1.6331892014 2.3772892632e-07 5.2675366402 -7.4003052711 -5.4692065987e-07
          2.3144843578 -4.141600132 1.6082617549e-07 1.139446497 -2.6284375191 -0.2083670944
          6.4796438217 -8.6992530823 -0.35360735655 11.994787216 -9.5481071472 0.68156963587
          0 0 0 3.9304482937 -5.9009423256 0.10471571237
          0.30509594083 -0.14942963421 0.21686778963 1.1603378057 -2.7098739147 -0.10826992989
          5.9715919495 -7.0463571548 0.40831530094 10.451816559 -9.2362060547 0.60537695885
          6.5105814934 -8.7496290207 -0.16504366696 13.106436729 -11.188308716 -0.66219562292
          0 0 0 1.8217173815 -2.7215254307 0.32702809572
          13.121930122 -11.248922348 -0.33038511872 0.13964684308 -0.1620875895 -0.098678223789
          11.427157402 -10.884116173 -0.58031344414 7.7111253738 -8.8621177673 0.22644594312
          0 0 0 0.85755819082 -1.6072826385 0.12377963215
          11.44311142 -10.94573307 -0.28911375999 0.11617806554 -0.23031154275 -0.040932644159
          4.9631900787 -7.0833520889 0.11930430681 2.3115241528 -4.1282701492 0.13744096458
          9.0115327835 -8.9833469391 0.52829384804 1.1658197641 -2.733697176 2.6446627999e-07
          6.5314025879 -8.7487983704 -1.5829543543e-07 0.57036966085 -0.67250084877 0.24937176704
          4.2162556648 -7.1523451805 -0.24017734826 0.26168587804 -0.6720263958 -0.112871252
          9.8217487335 -10.645451546 -0.49502462149 2.7006695271 -5.6173715591 -0.20511601865
          13.128148079 -11.269005775 5.3742621731e-07 0 0 0
          4.1200051308 -7.2078342438 0.011403988115 11.447877884 -10.965577126 3.2082957091e-07
          0.1159292385 -0.24458549917 1.1026160252e-07 9.8390626907 -10.706702232 -0.24541091919
          0.2544722259 -0.75992369652 -0.058410920203 2.7201321125 -5.6388511658 -0.10220759362
          3.9629211426 -5.8235039711 0.1792101115 4.130335331 -7.3443613052 9.5381686549e-08
          1.4242590666 -3.9630172253 -0.17467407882 1.1603375673 -2.7098739147 0.10827043653
          5.3572201729 -8.6923503876 -0.28999254107 9.8418674469 -10.725953102 1.6549731185e-07
          7.6941466331 -8.7987728119 0.45078387856 6.5105814934 -8.7496290207 0.16504335403
          2.7348906994 -5.6572918892 -1.7591824886e-08 0.25040337443 -0.78546416759 2.2691448009e-07
          0.84757238626 -1.5167553425 0.23807430267 13.121930122 -11.248921394 0.33038619161
          8.3315029144 -10.49143219 -0.41114130616 1.4518152475 -4.0309243202 -0.090290307999
          0.39058429003 -1.4893211126 -0.10646189004 5.2969760895 -8.6950283051 -0.097310975194
          4.8248214722 -6.8848872185 0.2137632519 2.2821235657 -4.0735034943 0.27021098137
          0 0 0 0.39580327272 -1.5801535845 -0.055292140692
          11.44311142 -10.94573307 0.28911438584 0.11617805809 -0.23031157255 0.0409328565
          8.3513689041 -10.546575546 -0.20224572718 1.4605818987 -4.0505518913 1.9213916858e-07
          5.206363678 -8.5937194824 -3.9532384477e-08 4.1200051308 -7.2078342438 -0.011404118501
          8.3538656235 -10.562871933 1.8652253075e-08 0.39612790942 -1.6076495647 3.2280624396e-07
          9.8390626907 -10.706701279 0.24541120231 0.2544721961 -0.75992375612 0.058411363512
          2.7201311588 -5.6388506889 0.10220748931 1.1394460201 -2.6284377575 0.20836751163
          6.4796438217 -8.6992521286 0.35360714793 6.9803814888 -10.406897545 -0.34318509698
          13.106436729 -11.188307762 0.6621966362 0 0 0
          0.52781903744 -2.5762565136 -0.09142447263 0.13964693248 -0.16208767891 0.098678432405
          11.427157402 -10.884115219 0.58031404018 1.4518147707 -4.0309243202 0.090290658176
          5.2969784737 -8.6950292587 0.097310692072 6.986749649 -10.460871696 -0.16682453454
          3.1089587212 -7.3376936913 -0.14828374982 0.53917944431 -2.6599304676 -0.047193489969
          0.39580315351 -1.5801537037 0.055292766541 8.3513679504 -10.546574593 0.20224569738
          3.1470072269 -7.3654117584 -0.044854290783 4.2862977982 -8.7907438278 -0.20447182655
          1.6925389767 -5.4883093834 -0.14088620245 14.200624466 -12.951861382 -0.64939880371
          0 0 0 12.376936913 -12.647255898 -0.56044697762
          4.2162547112 -7.1523447037 0.24017579854 0.26168593764 -0.67202651501 0.11287166923
          9.8217477798 -10.645450592 0.4950248301 1.7216368914 -5.5358247757 -0.06921903044
          4.3384227753 -8.8134899139 -0.14639250934 2.7006678581 -5.6173710823 0.20511573553
          14.211346626 -13.015901566 -0.32323184609 0 0 0
          0.54239231348 -2.6861183643 3.5679124721e-07 6.9885988235 -10.482010841 -1.1530348587e-07
          -0.017997326329 -0.16500416398 0.012969607487 12.388692856 -12.711735725 -0.27874428034
          -0.013988045044 -0.23146088421 0.0053229038604 3.0281710625 -7.1853356361 -3.540839657e-07
          10.592173576 -12.401245117 -0.46802330017 1.7315309048 -5.5445184708 -4.8698396427e-08
          4.4498763084 -8.7758054733 -1.9412668451e-07 14.215249062 -13.036382675 4.6114769248e-07
          0 0 0 -0.031910479069 -0.66764217615 0.017354773358
          10.60141468 -12.460840225 -0.23046126962 12.392758369 -12.731739044 2.4164850743e-07
          1.4242582321 -3.9630174637 0.17467430234 5.3572230339 -8.6923503876 0.28999149799
          -0.013630158268 -0.24569047987 1.4369541645e-07 -0.028518218547 -0.75389868021 0.0088256048039
          8.3315019608 -10.491431236 0.41114106774 0.39058417082 -1.4893213511 0.10646246374
          0.66597110033 -3.8934452534 -0.074606575072 5.7402744293 -10.342181206 -0.2802143693
          0.53917920589 -2.6599304676 0.047194175422 6.9867491722 -10.460871696 0.16682416201
          0.67976307869 -3.9653544426 -0.038261681795 5.7323865891 -10.418881416 -0.15501143038
          3.1470046043 -7.3654108047 0.04485316202 10.600860596 -12.474058151 4.8464787739e-08
          -0.027258405462 -0.77933430672 2.9421511272e-07 8.9101390839 -12.262899399 -0.36676734686
          1.7216360569 -5.5358247757 0.069218866527 4.3384213448 -8.8134889603 0.14639158547
          14.211346626 -13.015901566 0.32323274016 0 0 0
          -0.042172256857 -1.4718745947 0.020898701623 8.9111804962 -12.315572739 -0.17989325523
          12.388691902 -12.711735725 0.27874475718 -0.039386868477 -1.5618144274 0.010638601147
          0.68458890915 -3.987154007 2.8302079613e-07 5.7061510086 -10.463231087 -2.8345732517e-07
          -0.013988050632 -0.23146091402 -0.0053226291202 10.601413727 -12.460839272 0.23046131432
          8.9010562897 -12.331741333 -8.7379717684e-08 -0.038387801498 -1.5894929171 4.190303855e-07
          6.980381012 -10.406895638 0.34318441153 3.2922418118 -8.8994884491 -0.12343197316
          -0.028518242761 -0.75389873981 -0.0088250273839 0.52781867981 -2.576256752 0.091425068676
          1.9357025623 -7.1801810265 -0.076366424561 3.2670755386 -8.9825878143 -0.0086498325691
          3.1089556217 -7.3376927376 0.14828202128 1.944763422 -7.1839985847 -0.061786919832
          0.67976266146 -3.965354681 0.038262214512 5.7323861122 -10.418879509 0.15501061082
          4.2862958908 -8.7907428741 0.20446977019 1.6925374269 -5.4883093834 0.14088591933
          -0.048019006848 -2.5447764397 0.02404836379 7.4489278793 -12.199799538 -0.31760415435
          14.200623512 -12.951860428 0.64939969778 0 0 0
          12.376936913 -12.647254944 0.56044739485 -0.045904941857 -2.62870121 0.012236109935
          3.2672710419 -8.8714981079 -6.5954407091e-07 0.79509150982 -5.4065618515 -0.054659314454
          4.3444676399 -10.234273911 -0.16720817983 7.4440574646 -12.240139961 -0.15382646024
          -0.01799720712 -0.16500425339 -0.012969330885 1.9766596556 -7.1837530136 -4.9926541124e-07
          8.9111795425 -12.315571785 0.17989297211 -0.039386954159 -1.5618145466 -0.010637787171
          4.4199666977 -10.373505592 -0.069391220808 0.81044787169 -5.4615631104 -0.030298260972
          10.592172623 -12.40124321 0.46802327037 -0.045243389904 -2.6552975178 4.7672739356e-07
          7.434946537 -12.255516052 -4.3412913442e-07 -0.031910385936 -0.66764229536 -0.01735423319
          4.6230163574 -10.604960442 -9.1906150601e-07 15.282712936 -14.86516571 -0.63757014275
          0 0 0 0.8166885376 -5.4765095711 6.1022269904e-08
          15.290254593 -14.928258896 -0.31695714593 0 0 0
          3.2670726776 -8.982585907 0.0086478274316 13.314763069 -14.560801506 -0.548810184
          0.66597032547 -3.8934454918 0.074607014656 5.7402734756 -10.342179298 0.28021270037
          -0.17485167086 -0.15829779208 0.12343429774 1.9447622299 -7.1839981079 0.061785880476
          13.320416451 -14.624428749 -0.27379333973 -0.14354152977 -0.22528010607 0.051044903696
          8.9101371765 -12.262898445 0.36676666141 15.29216671 -14.94808197 3.1492220387e-07
          -0.045905128121 -2.62870121 -0.012235188857 11.368167877 -14.291499138 -0.45488503575
          -0.32405290008 -0.65723222494 0.14653082192 7.4440569878 -12.240139008 0.15382552147
          0 0 0 6.0966038704 -12.185370445 -0.26917618513
          -0.048581048846 -3.8510353565 0.026822185144 -0.042172297835 -1.4718748331 -0.020897956565
          -0.30989646912 -0.7438622117 0.075391687453 11.373983383 -14.354010582 -0.22450369596
          13.322170258 -14.643945694 1.013178732e-07 4.4199647903 -10.373503685 0.069389566779
          -0.047742001712 -3.9235775471 0.013531060889 6.0913467407 -12.189922333 -0.11269170046
          0.81044727564 -5.4615631104 0.030298344791 -0.14245381951 -0.23946323991 1.8009509972e-07
          2.2110238075 -9.0185527802 -0.060511250049 11.38069725 -14.371333122 -1.1040739878e-07
          3.2922382355 -8.8994865417 0.12343031168 -0.30345103145 -0.76916450262 3.6613596421e-07
          -0.047701701522 -3.9462563992 4.4063986593e-07 2.1259858608 -9.0698051453 0.036619052291
          6.0894012451 -12.16114521 -8.0841647332e-07 1.9357000589 -7.1801805496 0.076365180314
          15.290254593 -14.928258896 0.31695780158 9.4065761566 -14.109594345 -0.35597813129
          0.91279000044 -7.0819177628 -0.040779490024 0 0 0
          -0.47274145484 -1.4590965509 0.14778289199 3.4962611198 -10.495821953 -0.21324458718
          -0.47216543555 -1.5490974188 0.076225183904 9.368314743 -14.145782471 -0.18313191831
          13.320416451 -14.624428749 0.27379354835 0.92078465223 -7.1216902733 -0.013977787457
          3.4103858471 -10.527710915 0.032839301974 -0.14354152977 -0.22528012097 -0.051044560969
          -0.048019278795 -2.5447769165 -0.024047536775 7.4489269257 -12.199798584 0.31760296226
          2.1448974609 -8.8423137665 -1.2679864767e-06 0.79509025812 -5.4065623283 0.054659307003
          4.3444657326 -10.234272957 0.1672064662 9.3280448914 -14.143148422 -4.9359459808e-07
          11.373983383 -14.354010582 0.22450345755 0.92997848988 -7.1184988022 -3.8874031816e-07
          -0.30989649892 -0.7438622117 -0.075390972197 -0.47033214569 -1.5763685703 5.2256928029e-07
          -0.047742314637 -3.9235775471 -0.01353021618 6.0913462639 -12.189921379 0.11269000173
          3.4600417614 -10.651618004 -2.0251902697e-06 4.8314723969 -12.254718781 -0.24113850296
          -0.044752329588 -5.3559150696 0.027427608147 4.7098846436 -12.190228462 -0.071544408798
          -0.045678257942 -5.4144768715 0.014131098986 15.282711983 -14.865164757 0.63757073879
          0 0 0 2.1259832382 -9.0698041916 -0.036622069776
          -0.62190294266 -2.5291645527 0.13965022564 7.8837552071 -14.043326378 -0.33038473129
          -0.62854319811 -2.6128652096 0.071682043374 13.314763069 -14.560800552 0.54881042242
          -0.17485152185 -0.15829785168 -0.12343395501 7.8736433983 -14.063154221 -0.15867505968
          9.3683128357 -14.145781517 0.18313093483 0.92078381777 -7.1216902733 0.013976999559
          -0.47216549516 -1.549097538 -0.076224170625 3.4103827477 -10.527709961 -0.03284111619
          4.5549001694 -12.040195465 -1.339264486e-06 -0.045886557549 -5.4307751656 2.9063804163e-07
          11.368167877 -14.291498184 0.45488473773 -0.32405278087 -0.65723234415 -0.14653015137
          6.0966029167 -12.185369492 0.2691744566 -0.63026756048 -2.6391437054 6.1507665805e-07
          -0.048581600189 -3.8510358334 -0.026821447536 7.8604903221 -14.056997299 -9.9525414043e-07
          16.34201622 -16.936725616 -0.62220543623 0 0 0
          2.2110202312 -9.0185508728 0.060508210212 4.7098836899 -12.190227509 0.07154186815
          0 0 0 14.239733696 -16.640956879 -0.54583472013
          1.0092358589 -8.9043989182 0.0012484817998 -0.045678719878 -5.4144768715 -0.014130547643
          -0.3374338448 -0.14371334016 0.23780313134 2.2845411301 -10.715707779 -0.15606024861
          16.347436905 -16.992486954 -0.3099578619 9.4065732956 -14.109592438 0.35597702861
          14.242949486 -16.696578979 -0.27252206206 -0.27839195728 -0.21298927069 0.098644375801
          0.91278839111 -7.0819182396 0.040778677911 1.0117089748 -8.8934173584 -0.048941012472
          -0.47274145484 -1.4590966702 -0.14778195322 6.4869914055 -14.006882668 -0.28000867367
          -0.62854337692 -2.6128652096 -0.071680851281 3.4962570667 -10.495819092 0.2132409662
          -0.76275080442 -3.8294155598 0.12823334336 7.8736429214 -14.063153267 0.15867315233
          2.2589356899 -10.699421883 -0.063087522984 -0.77452749014 -3.9023816586 0.065545164049
          6.4731369019 -14.008288383 -0.12647563219 12.165996552 -16.37664032 -0.46926420927
          16.346975327 -17.010372162 1.649609942e-07 -0.62860959768 -0.64252883196 0.27919349074
          0 0 0 12.155990601 -16.436658859 -0.23594631255
          -0.60416144133 -0.73121589422 0.14427502453 14.244680405 -16.714468002 -2.3994971343e-08
          3.6379396915 -12.3325243 -0.22570447624 1.0296700001 -8.8674993515 -1.0414423741e-06
          2.2676684856 -10.617445946 -1.6308291606e-06 -0.037030681968 -7.0311598778 0.027521390468
          -0.2767354548 -0.22690735757 2.2044724801e-07 3.6558291912 -12.345228195 -0.10032817721
          6.4712033272 -13.987969398 -1.249319098e-06 -0.03910978511 -7.0669908524 0.011913686991
          -0.77892678976 -3.9250688553 6.2553328917e-07 4.8314709663 -12.254715919 0.24113582075
          12.152684212 -16.459220886 -2.9330544749e-07 -0.044753201306 -5.3559155464 -0.027427153662
          -0.59255605936 -0.75635313988 4.3828637786e-07 9.9674806595 -16.129646301 -0.39153262973
          16.347436905 -16.992486954 0.30995818973 3.619202137 -12.277533531 -1.9227322809e-06
          -0.92070555687 -1.4538933039 0.27752694488 -0.62190312147 -2.5291647911 -0.13964915276
          -0.041021682322 -7.0711140633 2.9779091193e-08 7.8837537766 -14.043324471 0.33038324118
          0 0 0 9.9773845673 -16.201402664 -0.20166309178
          -0.9239628911 -1.5434340239 0.14324657619 14.242949486 -16.696578979 0.27252200246
          1.0117081404 -8.8934173584 0.048938851804 2.2589325905 -10.699419975 0.063083544374
          -0.27839195728 -0.21298927069 -0.098643958569 6.473136425 -14.00828743 0.1264732182
          -0.77452778816 -3.902381897 -0.065543957055 12.155989647 -16.436658859 0.23594579101
          10.005498886 -16.234981537 -6.0765535181e-07 5.1191954613 -14.022326469 -0.25911402702
          -0.88232177496 -5.3312301636 0.11130639166 -0.92238557339 -1.569422245 6.2304957282e-07
          -0.60416144133 -0.73121589422 -0.14427417517 -0.90151327848 -5.3864049911 0.057521361858
          3.655823946 -12.345223427 0.10032448918 5.0137209892 -13.998293877 -0.12281496823
          -0.039110384881 -7.0669908524 -0.011913664639 8.4306240082 -15.982794762 -0.32169693708
          16.34201622 -16.936723709 0.62220573425 0 0 0
          -1.2225339413 -2.5359048843 0.25680449605 8.4713153839 -16.013652802 -0.13400745392
          14.239732742 -16.640956879 0.54583472013 -1.2384377718 -2.6166758537 0.13250008225