<?xml version="1.0"?>
<VTKFile type="UnstructuredGrid" version="0.1" byte_order="LittleEndian" header_type="UInt32" compressor="vtkZLibDataCompressor">
  <UnstructuredGrid>
    <Piece NumberOfPoints="6405" NumberOfCells="4800">
      <PointData>
        <DataArray type="Float32" Name="DISPLACEMENT" NumberOfComponents="3" ComponentName0="X-DISPLACEMENT" ComponentName1="Y-DISPLACEMENT" ComponentName2="Z-DISPLACEMENT" format="ascii" RangeMin="0" RangeMax="488.33758408">
          0 0 0 0 0 0
          2.7915532589 -1.5586059093 -1.3202531338 0 0 0
          1.830052495 -0.84244024754 -1.0151131153 0 0 0
          2.5352482796 -1.7481023073 -0.52982401848 1.5856580734 -1.0067464113 -0.41406199336
          0 0 0 5.111928463 -2.8571782112 -1.4115432501
          0 0 0 5.0202074051 -3.102619648 -0.72601431608
          3.6928327084 -2.2635390759 -1.1394377947 0 0 0
          0 0 0 2.5458657742 -1.8142861128 2.4460803161e-08
          1.2806860209 -0.51668828726 -0.75619494915 1.578199625 -1.0427240133 4.7096122557e-08
          3.6007061005 -2.4675250053 -0.58078968525 1.098974824 -0.67278957367 -0.30738660693
          4.9651875496 -3.1735420227 1.843906432e-07 2.5523114204 -1.7983496189 -0.84913468361
          0 0 0 3.5492696762 -2.5349960327 2.0947057067e-07
          2.4759886265 -1.9893583059 -0.43476346135 0 0 0
          7.3229980469 -4.6506676674 -1.3820736408 0 0 0
          1.0891631842 -0.70524942875 4.8386059603e-08 0 0 0
          0 0 0 2.535248518 -1.7481023073 0.52982407808
          5.4861650467 -4.0554161072 -1.1134848595 7.3237957954 -4.8596587181 -0.70211708546
          0.77666008472 -0.33609741926 -0.48104315996 1.5856583118 -1.0067465305 0.41406211257
          5.4876756668 -4.2548952103 -0.56654322147 0.68221837282 -0.49592992663 -0.19911290705
          2.4348783493 -2.0434081554 2.0913491028e-07 5.0202078819 -3.1026198864 0.72601473331
          0 0 0 0 0 0
          1.5631630421 -1.536863327 -0.55031436682 3.8762545586 -3.5986092091 -0.8462959528
          7.3043794632 -4.9328203201 4.5143599436e-07 3.6007065773 -2.4675250053 0.58079010248
          3.86526227 -3.7917757034 -0.42895168066 1.0989749432 -0.67278957367 0.30738672614
          5.4713845253 -4.320379734 4.7135640102e-07 1.5058172941 -1.7228627205 -0.27761992812
          0.70513403416 -0.52807748318 3.7726834989e-08 0 0 0
          9.4735307693 -6.8352003098 -1.2960249186 0 0 0
          7.2390508652 -6.265048027 -1.0552272797 2.4759888649 -1.9893583059 0.43476390839
          9.5057401657 -7.0175204277 -0.65325659513 2.7915537357 -1.5586060286 1.320253253
          0 0 0 0 0 0
          1.4794937372 -1.7743183374 1.8509383892e-07 3.8503539562 -3.851047039 4.6461315151e-07
          0.25167363882 -0.27914997935 -0.20281419158 7.2679519653 -6.4448080063 -0.53154057264
          1.8300528526 -0.84244030714 1.0151133537 2.3848202229 -3.3077802658 -0.56767427921
          0 0 0 7.3237962723 -4.8596591949 0.70211803913
          0.20323656499 -0.44955465198 -0.087299592793 2.3580522537 -3.4915597439 -0.28818535805
          5.4876766205 -4.2548952103 0.56654417515 0.68221855164 -0.49592986703 0.19911301136
          5.1994786263 -5.8209357262 -0.81483995914 0.51438558102 -1.4489151239 -0.2649551034
          9.5040750504 -7.0786967278 8.2013042402e-07 5.1119294167 -2.8571784496 1.4115437269
          0 0 0 0 0 0
          5.2095656395 -5.9975566864 -0.40930816531 3.692833662 -2.2635390759 1.1394382715
          7.2702703476 -6.5045156479 8.3035678244e-07 0.46282041073 -1.6246604919 -0.13383445144
          1.2806863785 -0.51668822765 0.75619518757 0.22406426072 -0.49727481604 4.8285753174e-10
          2.3398599625 -3.5453133583 4.3662021199e-07 3.8652627468 -3.7917757034 0.42895263433
          1.5058176517 -1.7228626013 0.27762034535 5.2075462341 -6.0539793968 8.1371194938e-07
          2.5523121357 -1.7983494997 0.84913522005 0.44340196252 -1.6780352592 1.4013949112e-07
          3.2432985306 -5.528324604 -0.57203483582 9.5057401657 -7.0175204277 0.65325826406
          7.3229994774 -4.6506676674 1.3820747137 0 0 0
          11.531235695 -9.393488884 -1.2173632383 0 0 0
          0 0 0 0.84960466623 -3.1908364296 -0.3137768209
          3.2328298092 -5.6951732635 -0.28799727559 11.566792488 -9.5526037216 -0.6095649004
          8.931933403 -8.8477773666 -1.0035710335 7.267952919 -6.4448080063 0.53154224157
          -0.18456335366 -0.39695307612 0.044991355389 0 0 0
          5.4861664772 -4.0554161072 1.1134859324 0.77666044235 -0.33609730005 0.48104336858
          0.80944049358 -3.3573095798 -0.16047364473 0.20323678851 -0.44955456257 0.087299630046
          -0.22113870084 -0.55406647921 0.020551908761 2.3580527306 -3.4915595055 0.28818625212
          8.9630556107 -9.0072011948 -0.50232732296 5.2095665932 -5.9975566864 0.40930980444
          3.2266159058 -5.7480278015 7.728887681e-07 11.571604729 -9.6057453156 1.2928442175e-06
          -0.36376073956 -1.5658639669 -0.035621967167 0.46282082796 -1.6246603727 0.13383476436
          0 0 0 6.5017590523 -8.4203672409 -0.79070526361
          1.5631637573 -1.5368630886 0.55031490326 3.8762557507 -3.5986092091 0.84629702568
          0.7915533185 -3.4078814983 3.8049557816e-07 8.9705314636 -9.0597887039 1.2893030998e-06
          -0.24171720445 -0.60180670023 -4.4043066083e-08 -0.4296194613 -1.7221993208 -0.01413724944
          6.5145101547 -8.5764942169 -0.39450797439 9.4735326767 -6.8352003098 1.2960267067
          0 0 0 1.2715344429 -5.3904514313 -0.35546079278
          7.2390522957 -6.265048027 1.0552290678 -0.45341855288 -1.7778383493 7.6481782685e-08
          1.2433259487 -5.5385189056 -0.1793088913 6.5175447464 -8.6269130707 1.2572874084e-06
          0.25167402625 -0.27914980054 0.20281435549 3.2328305244 -5.6951727867 0.28799885511
          4.1324934959 -8.128862381 -0.57964354753 11.566793442 -9.5526037216 0.6095674634
          -0.45538261533 -3.2880852222 -0.12520247698 2.3848214149 -3.3077800274 0.56767523289
          0 0 0 0.80944108963 -3.3573095798 0.16047443449
          4.1243019104 -8.2740106583 -0.28953021765 -0.22113846242 -0.55406636 -0.020551947877
          -0.52381402254 -3.4169232845 -0.058006793261 8.9630565643 -9.0072011948 0.50232994556
          5.1994805336 -5.8209352493 0.81484168768 0.51438641548 -1.4489148855 0.26495552063
          13.488046646 -12.283088684 -1.1513894796 0 0 0
          1.2338000536 -5.5880298615 6.9916274015e-07 10.560523987 -11.762062073 -0.96214991808
          13.519349098 -12.423667908 -0.57528752089 0 0 0
          -0.57843983173 -0.57798218727 0.27468520403 10.587602615 -11.902981758 -0.48051223159
          4.1208791733 -8.3207845688 1.1947566918e-06 -0.62090808153 -0.73358231783 0.11031965166
          -0.42961898446 -1.7221992016 0.014137443155 -0.55046075583 -3.4593985081 2.9848581562e-07
          6.5145111084 -8.5764942169 0.39451050758 7.779173851 -11.348855019 -0.77414304018
          -1.094463706 -1.8313775063 0.14013499022 13.52499485 -12.470309258 1.8679559162e-06
          0 0 0 -1.1798480749 -1.9759498835 0.072100915015
          7.7901272774 -11.48632431 -0.38555291295 10.595337868 -11.949411392 1.8482850237e-06
          -0.68898171186 -0.78604769707 -7.9140136222e-08 3.2432999611 -5.528324604 0.57203644514
          1.7808026075 -7.9757819176 -0.39677470922 11.531237602 -9.393488884 1.2173659801
          0 0 0 -0.42326763272 -5.4549260139 -0.20731982589
          1.243326664 -5.5385189056 0.17931032181 0.84960579872 -3.1908361912 0.31377768517
          8.9319353104 -8.8477773666 1.0035737753 -0.18456293643 -0.39695289731 -0.044991239905
          -0.47959434986 -5.5627427101 -0.09806008637 1.7560824156 -8.1016321182 -0.19802340865
          4.1243028641 -8.2740097046 0.28953263164 -0.52381336689 -3.4169230461 0.05800742656
          7.793803215 -11.531018257 1.7984521037e-06 -1.2034544945 -2.0378336906 9.2748928537e-09
          5.0465517044 -11.057357788 -0.59085810184 -1.4413342476 -3.5955181122 -0.0038895204198
          -0.3637598753 -1.5658637285 0.035622280091 13.519350052 -12.423667908 0.57529127598
          6.5017609596 -8.4203672409 0.79070794582 0 0 0
          1.7488359213 -8.1453371048 1.1077238469e-06 -0.49954584241 -5.6021265984 6.0790154066e-07
          5.0403666496 -11.183965683 -0.29471421242 10.587603569 -11.902981758 0.48051595688
          -1.5257821083 -3.6810183525 0.0082194786519 -0.62090790272 -0.73358219862 -0.11031975597
          1.2715358734 -5.3904514313 0.3554623127 5.0389080048 -11.225499153 1.7202772824e-06
          7.790128231 -11.48632431 0.38555654883 -1.1798477173 -1.9759497643 -0.07210085541
          -1.5432186127 -3.7101566792 2.1513744741e-07 15.349954605 -15.466316223 -1.0966110229
          0 0 0 15.376368523 -15.591472626 -0.54771202803
          4.1324949265 -8.128862381 0.57964611053 12.129532814 -14.966897964 -0.92824554443
          -0.45538136363 -3.2880849838 0.12520322204 -0.26239609718 -8.0098390579 -0.28062796593
          -1.1703449488 -0.87859869003 0.53869533539 -0.4795935154 -5.5627422333 0.098061345518
          1.75608325 -8.1016321182 0.19802565873 0 0 0
          12.15236187 -15.092187881 -0.46339479089 -0.30581271648 -8.0975732803 -0.13362754881
          -1.3423957825 -1.0564739704 0.19259175658 2.3627154827 -10.890845299 -0.43499088287
          -1.6302489042 -5.7618470192 -0.12305086106 13.488048553 -12.283088684 1.1513932943
          0 0 0 10.560525894 -11.762062073 0.96215373278
          15.381459236 -15.632950783 2.5459416975e-06 -1.7117661238 -5.8124880791 -0.051531869918
          2.3434906006 -10.997873306 -0.21673287451 -0.57843953371 -0.57798194885 -0.27468517423
          9.0342521667 -14.564811707 -0.76137435436 -2.1715819836 -2.1641130447 0.29779246449
          0 0 0 5.0403676033 -11.183965683 0.29471766949
          -1.5257815123 -3.6810181141 -0.0082190111279 12.159118652 -15.133451462 2.5062081477e-06
          -0.31809055805 -8.1326408386 1.0123288803e-06 9.0438022614 -14.686471939 -0.37923517823
          -2.3131995201 -2.2780413628 0.13441333175 -1.5921436548 -1.1183601618 -1.5266815012e-07
          7.7791757584 -11.348855019 0.77414673567 -1.0944629908 -1.8313771486 -0.1401348114
          2.3391728401 -11.035974503 1.6195100443e-06 -1.734834671 -5.8306303024 5.1886212304e-07
          1.7808043957 -7.9757814407 0.39677706361 9.0472354889 -14.72610569 2.436612931e-06
          -2.3620648384 -2.3198316097 -7.6577940433e-08 -0.4232660234 -5.4549255371 0.20732119679
          15.376369476 -15.591472626 0.54771715403 5.9817008972 -14.271377563 -0.60017371178
          0 0 0 -2.8305740356 -3.924202919 0.093378841877
          5.9783482552 -14.382680893 -0.29925408959 12.152363777 -15.092186928 0.46339985728
          -1.3423955441 -1.056473732 -0.192591995 -0.30581170321 -8.0975732803 0.13362962008
          -2.9260377884 -3.9625861645 0.044390376657 5.0465540886 -11.057356834 0.59086167812
          0.012323965319 -10.898134232 -0.3421947062 2.3434917927 -10.997872353 0.21673615277
          -1.4413330555 -3.5955178738 0.0038901006337 -1.7117652893 -5.8124876022 0.051532950252
          -1.6958557367 -8.3036155701 -0.22706358135 -0.020012721419 -10.968258858 -0.1638019681
          5.9781675339 -14.419343948 2.3400518785e-06 9.043803215 -14.686470985 0.37924006581
          -2.3131990433 -2.2780411243 -0.13441345096 -1.764321208 -8.3296890259 -0.10490312427
          -2.9345617294 -3.9794428349 1.221403636e-07 17.129560471 -18.909612656 -1.0510165691
          0 0 0 -1.7167154551 -1.402970314 0.72489762306
          -0.027791218832 -10.997591019 1.5088328382e-06 3.0051419735 -14.091683388 -0.46480503678
          13.646976471 -18.428249359 -0.89965289831 15.349957466 -15.466316223 1.0966161489
          0 0 0 0 0 0
          -1.7848300934 -8.3416032791 9.1684199788e-07 -3.2348709106 -6.0840883255 -0.076886922121
          17.151815414 -19.022228241 -0.52499425411 2.9921572208 -14.184210777 -0.23130051792
          13.666390419 -18.54082489 -0.44917562604 12.129535675 -14.966897964 0.92825067043
          -1.9781665802 -1.5635788441 0.25614330173 -0.26239410043 -8.0098381042 0.2806301415
          -1.1703445911 -0.87859839201 -0.53869539499 -3.3266379833 -6.0867028236 -0.041703924537
          5.9783492088 -14.382679939 0.29925879836 -2.9260373116 -3.9625859261 -0.044390093535
          10.270616531 -18.034391403 -0.74980610609 2.3627176285 -10.890845299 0.43499428034
          -1.6302473545 -5.7618465424 0.1230520606 0 0 0
          -3.0382704735 -2.7356038094 0.25640937686 17.15627861 -19.059541702 3.3256419556e-06
          -2.3047735691 -1.6297895908 -2.3704426155e-07 2.9899785519 -14.217514038 2.2222056941e-06
          10.279613495 -18.143457413 -0.37365359068 9.0342550278 -14.564811707 0.76137936115
          13.672187805 -18.577896118 3.2617467696e-06 -2.1715812683 -2.1641125679 -0.29779246449
          -3.3430993557 -6.1005320549 4.2517186216e-07 -3.2421636581 -2.7633345127 0.12531763315
          -0.020011503249 -10.968258858 0.16380503774 -1.7643202543 -8.3296890259 0.10490500182
          -1.6438336372 -11.163161278 -0.30863958597 10.282858849 -18.179004669 3.1690688047e-06
          -3.2961196899 -2.7827100754 -1.7672819297e-07 -1.6932522058 -11.172449112 -0.14712505043
          6.9340515137 -17.737422943 -0.60562354326 0 0 0
          -3.809633255 -4.5443143845 -0.10071706027 17.151817322 -19.022226334 0.52500092983
          -1.9781663418 -1.5635787249 -0.25614371896 2.9921584129 -14.184210777 0.23130500317
          6.9335875511 -17.837127686 -0.30200767517 5.9817037582 -14.27137661 0.60017853975
          13.666392326 -18.54082489 0.44918218255 0.38271436095 -14.070868492 -0.38736709952
          -3.4709770679 -8.6272630692 -0.22568421066 -2.8305728436 -3.9242024422 -0.093378439546
          -3.9538173676 -4.4631295204 -0.02372575365 -3.3266370296 -6.0867023468 0.041704822332
          0.36135473847 -14.12887001 -0.18647176027 -3.5505239964 -8.5963363647 -0.1190212816
          -1.7082841396 -11.179933548 1.4054129451e-06 0.012326335534 -10.898134232 0.34219789505
          10.279615402 -18.143457413 0.37365996838 -1.6958537102 -8.3036155701 0.2270655781
          6.9343037605 -17.870000839 3.0503113067e-06 -3.2421631813 -2.7633342743 -0.12531793118
          -3.9716281891 -4.4654011726 2.6892113425e-08 0.35660669208 -14.153531075 2.0951490569e-06
          -3.5701563358 -8.6021413803 8.2330541318e-07 -4.1944856644 -6.7239189148 -0.37140846252
          3.6968138218 -17.543746948 -0.48485815525 17.129562378 -18.909610748 1.0510233641
          0 0 0 -1.6932510138 -11.172449112 0.14712791145
          -1.7167152166 -1.4029700756 -0.72489780188 -4.3115158081 -6.6184120178 -0.14896813035
          3.0051445961 -14.091682434 0.46480962634 13.646979332 -18.428249359 0.89965951443
          3.68952775 -17.626226425 -0.24117128551 18.840515137 -22.58625412 -1.0133215189
          0 0 0 -3.2348692417 -6.0840878487 0.076887950301
          18.859333038 -22.689031601 -0.50621324778 -0.27148202062 -2.1920349598 0.10630985349
          15.120760918 -22.119695663 -0.87520354986 6.9335889816 -17.837127686 0.30201381445
          0 0 0 -3.9538166523 -4.4631290436 0.023725856096
          15.137428284 -22.222341537 -0.4370469749 -0.36734905839 -2.156819582 0.094944164157
          0.36135616899 -14.12887001 0.1864759922 -3.5505230427 -8.5963354111 0.11902297288
          10.270619392 -18.034391403 0.74981254339 -4.3321962357 -6.6276259422 3.4374463098e-07
          3.6887669563 -17.65583992 2.9108437047e-06 -3.0382697582 -2.7356033325 -0.25640949607
          -1.4836004972 -14.2908535 -0.3617746532 -0.68834984303 -4.3504281044 -0.38891631365
          11.490839005 -21.73210144 -0.73857563734 -3.5593879223 -11.460499763 -0.33637309074
          18.863334656 -22.723072052 4.2030806071e-06 0 0 0
          -1.5138498545 -14.292098999 -0.17547929287 15.14246273 -22.256132126 4.111184353e-06
          -0.39125192165 -2.2384419441 -1.8653079792e-07 11.499617577 -21.831544876 -0.36821970344
          -0.88223797083 -4.326420784 -0.14697019756 -3.617367506 -11.415153503 -0.1767424345
          -1.6438312531 -11.163161278 0.3086425662 -1.5238341093 -14.29750061 1.9786289158e-06
          -4.266644001 -9.23640728 -0.56876832247 -4.3115148544 -6.6184120178 0.14896887541
          0.83273595572 -17.49095726 -0.41446805 11.50275898 -21.863986969 3.9910660234e-06
          6.9340543747 -17.737422943 0.60562974215 3.6895291805 -17.626226425 0.24117714167
          -3.6350307465 -11.419261932 1.3123062672e-06 -0.97751903534 -4.3021197319 -1.6155101434e-07
          -3.8096318245 -4.5443139076 0.10071732849 18.859334946 -22.689031601 0.50622165203
          7.8992333412 -21.430994034 -0.60718011856 -4.3553137779 -9.1293439865 -0.24891772866
          -0.94357466698 -6.2020578384 -0.62160044909 0.82126808167 -17.542303085 -0.20054334402
          0.38271710277 -14.070868492 0.38737145066 -3.4709751606 -8.6272630692 0.2256860584
          0 0 0 -1.0228310823 -6.1981811523 -0.2688806355
          15.137430191 -22.222341537 0.43705523014 -0.36734879017 -2.156819582 -0.09494446218
          7.9012012482 -21.522314072 -0.30285310745 -4.3785414696 -9.1389493942 7.5840756608e-07
          0.81887865067 -17.563539505 2.7637331641e-06 -1.513848424 -14.292098999 0.17548330128
          7.9025774002 -21.552444458 3.8460675569e-06 -1.0834701061 -6.1204018593 1.2552725082e-07
          11.499619484 -21.831544876 0.36822769046 -0.88223737478 -4.326420784 0.14696994424
          -3.6173660755 -11.415153503 0.17674511671 -4.194483757 -6.723918438 0.3714093864
          3.6968169212 -17.543746948 0.48486414552 4.4273257256 -21.22303009 -0.49632418156
          18.840518951 -22.58625412 1.0133299828 0 0 0
          -0.96662306786 -8.0833883286 -0.64679694176 -0.27148157358 -2.1920349598 -0.10630987585
          15.120763779 -22.119695663 0.87521183491 -4.3553123474 -9.1293439865 0.24891930819
          0.82126969099 -17.542303085 0.20054891706 4.4246225357 -21.299150467 -0.24680504203
          -3.5160984993 -14.540064812 -0.40350407362 -0.95555889606 -8.2225637436 -0.29006165266
          -1.0228302479 -6.1981811523 0.26888093352 7.9012026787 -21.522314072 0.30286082625
          -3.5510799885 -14.493322372 -0.2117446363 -1.2344846725 -17.650283813 -0.38735041022
          -4.0600738525 -12.014971733 -0.69472938776 20.495269775 -26.476182938 -0.98245555162
          0 0 0 16.557580948 -26.021816254 -0.85421460867
          -1.4835977554 -14.2908535 0.36177879572 -0.68834877014 -4.3504281044 0.38891631365
          11.490841866 -21.73210144 0.73858374357 -4.116850853 -11.931933403 -0.31286796927
          -1.2493350506 -17.649141312 -0.1906581074 -3.5593855381 -11.46049881 0.33637592196
          20.511201859 -26.571582794 -0.49079343677 0 0 0
          -0.95862531662 -8.2265853882 5.0574271881e-07 4.4249444008 -21.326196671 3.6816256852e-06
          0.010668382049 -2.3253257275 -0.0088955266401 16.57195282 -26.117012024 -0.42661878467
          0.0094971396029 -2.3144514561 -0.0038985735737 -3.564073801 -14.4985466 1.88263175e-06
          12.696087837 -25.639547348 -0.72748923302 -4.1379566193 -11.945393562 1.2593387737e-06
          -1.2555143833 -17.653888702 2.6342167985e-06 20.514846802 -26.603143692 5.1738916227e-06
          0 0 0 0.018529968336 -4.7210707664 -0.0078438902274
          12.704688072 -25.731845856 -0.36280271411 16.57635498 -26.148328781 5.0488747547e-06
          -4.2666420937 -9.2364063263 0.56877011061 0.83273911476 -17.490955353 0.41447377205
          0.0097734499723 -2.3371601105 -9.4900101999e-08 0.019204253331 -4.83715868 -0.0041801691987
          7.8992366791 -21.430994034 0.60718792677 -0.94357323647 -6.2020578384 0.62160086632
          -0.82152378559 -10.246641159 -0.60872930288 1.3485041857 -21.136287689 -0.42698568106
          -0.9555580616 -8.2225627899 0.29006269574 4.4246239662 -21.299150467 0.246812433
          -0.79012769461 -10.436619759 -0.28567388654 1.3444924355 -21.185323715 -0.20766940713
          -3.551078558 -14.493321419 0.2117484659 12.70771122 -25.761993408 4.8975452955e-06
          0.019195016474 -4.8043274879 1.477310807e-08 8.8725128174 -25.335010529 -0.60552048683
          -4.1168498993 -11.931933403 0.31287056208 -1.2493333817 -17.649141312 0.19066342711
          20.511203766 -26.571582794 0.49080380797 0 0 0
          0.020817698911 -6.5198531151 -0.0058401501738 8.8762588501 -25.42035675 -0.30207130313
          16.571954727 -26.117012024 0.42662891746 0.021317875013 -6.7040896416 -0.0032057692297
          -0.77830910683 -10.457666397 9.2982895694e-07 1.3439991474 -21.204616547 3.5132854919e-06
          0.0094973826781 -2.3144514561 0.0038984478451 12.704689026 -25.731845856 0.36281254888
          8.8780622482 -25.448551178 4.7228359108e-06 0.021386599168 -6.6406674385 2.9893303122e-07
          4.4273290634 -21.223028183 0.49633169174 -3.3584997654 -17.839719772 -0.43761235476
          0.019204778597 -4.83715868 0.0041802488267 -0.96662139893 -8.0833883286 0.64679807425
          -3.6221044064 -14.996767998 -0.7509059906 -3.3742654324 -17.79797554 -0.22849908471
          -3.5160956383 -14.540064812 0.40350803733 -3.6516587734 -14.948269844 -0.34383937716
          -0.79012674093 -10.436619759 0.28567576408 1.3444942236 -21.185321808 0.20767648518
          -1.2344815731 -17.650283813 0.38735586405 -4.0600709915 -12.014970779 0.69473212957
          0.020241551101 -8.3394107819 -0.0052596656606 5.1874899864 -25.114042282 -0.50142478943
          20.49527359 -26.476182938 0.98246598244 0 0 0
          16.557584763 -26.021816254 0.85422480106 0.020374812186 -8.5978899002 -0.0028761015274
          -3.3819189072 -17.805736542 2.5361957796e-06 -0.56818187237 -12.719072342 -0.55987626314
          -0.91605937481 -21.225166321 -0.39411237836 5.1879739761 -25.186246872 -0.24923788011
          0.010668810457 -2.3253257275 0.0088956058025 -3.6702511311 -14.965589523 1.837223067e-06
          8.8762607574 -25.42035675 0.30208078027 0.021318543702 -6.7040896416 0.0032063981052
          -0.91972738504 -21.227758408 -0.19627705216 -0.54223632812 -12.932128906 -0.27301743627
          12.696091652 -25.639545441 0.72749912739 0.020425263792 -8.579791069 6.6478770577e-07
          5.1890473366 -25.211610794 4.5302313083e-06 0.018530951813 -4.7210712433 0.0078441109508
          -0.92252856493 -21.234746933 3.3692804209e-06 22.104486465 -30.564947128 -0.95743358135
          0 0 0 -0.53575468063 -12.957903862 1.4138295228e-06
          22.117938995 -30.655105591 -0.47822546959 0 0 0
          -3.3742637634 -17.79797554 0.22850419581 17.962776184 -30.120782852 -0.83610409498
          -0.82152199745 -10.246641159 0.60873132944 1.3485076427 -21.136287689 0.42699286342
          0.29173970222 -2.1959431171 -0.1232907027 -3.6516571045 -14.94826889 0.34384310246
          17.975175858 -30.210634232 -0.41757509112 0.38558238745 -2.1627779007 -0.10177884996
          8.8725166321 -25.335008621 0.60553002357 22.121253967 -30.684854507 6.2369736042e-06
          0.020375572145 -8.5978899002 0.0028774517123 13.886318207 -29.743837357 -0.71641433239
          0.72383224964 -4.3580336571 0.37400299311 5.1879758835 -25.186246872 0.24924698472
          0 0 0 1.9167829752 -24.995576859 -0.43065407872
          0.018111491576 -10.419379234 -0.0052175503224 0.020819012076 -6.5198535919 0.0058408584446
          0.91898941994 -4.3365106583 0.13993498683 13.894667625 -29.830940247 -0.35731434822
          17.97899437 -30.240131378 6.0746338022e-06 -0.9197255969 -21.227758408 0.19628383219
          0.018163770437 -10.713731766 -0.0028637496289 1.9173829556 -25.044715881 -0.21019428968
          -0.54223531485 -12.932128906 0.27302029729 0.41010785103 -2.2447555065 1.4572197671e-08
          -2.9880053997 -18.189334869 -0.75711148977 13.897470474 -29.859401703 5.8880004872e-06
          -3.358496666 -17.839719772 0.43761759996 1.0145337582 -4.3130741119 2.2357576768e-07
          0.018252868205 -10.735311508 1.0883327377e-06 -2.9967877865 -18.180814743 -0.34880742431
          1.9181492329 -25.063100815 4.3347840801e-06 -3.6221015453 -14.996767998 0.75090992451
          22.117940903 -30.655105591 0.47823798656 9.8488826752 -29.437763214 -0.60134398937
          -0.24739775062 -15.441818237 -0.50740611553 0 0 0
          0.98496854305 -6.2126097679 0.60959738493 -3.0987739563 -21.349861145 -0.4475325048
          1.0649819374 -6.2104620934 0.26313605905 9.8537082672 -29.518751144 -0.29998204112
          17.975177765 -30.210634232 0.41758725047 -0.22722496092 -15.672976494 -0.25719869137
          -3.100194931 -21.318506241 -0.23147661984 0.38558256626 -2.1627779007 0.10177893937
          0.020243085921 -8.3394107819 0.0052610733546 5.1874938011 -25.114042282 0.50143396854
          -3.0137262344 -18.203704834 2.4851690341e-06 -0.56817984581 -12.719072342 0.55987924337
          -0.91605597734 -21.225166321 0.3941192925 9.8556461334 -29.545574188 5.6789385781e-06
          13.894669533 -29.830940247 0.35732614994 -0.22797173262 -15.711685181 1.9843907921e-06
          0.91898983717 -4.3365106583 -0.13993450999 1.1257543564 -6.1333298683 4.9310608574e-07
          0.01816461049 -10.713730812 0.0028659417294 1.9173848629 -25.044715881 0.21020299196
          -3.1033675671 -21.331138611 3.2448976981e-06 -0.53807145357 -25.018838882 -0.39042374492
          0.014956511557 -12.828744888 -0.0052421540022 -0.53486961126 -25.02775383 -0.19531095028
          0.015021124855 -13.120077133 -0.0028974185698 22.10449028 -30.564945221 0.95744615793
          0 0 0 -2.9967858791 -18.180812836 0.3488124311
          1.0082232952 -8.0969200134 0.63530749083 5.9690747261 -29.206451416 -0.50231873989
          0.99754118919 -8.2370214462 0.28458794951 17.962779999 -30.120782852 0.83611631393
          0.29174008965 -2.1959431171 0.12329095602 5.9712557793 -29.27602005 -0.24952933192
          9.8537101746 -29.518751144 0.29999342561 -0.22722384334 -15.672976494 0.25720268488
          1.0649825335 -6.2104620934 -0.26313504577 -3.1001930237 -21.318506241 0.23148314655
          -0.53542536497 -25.036901474 4.161599918e-06 0.015120598488 -13.152196884 1.5622375713e-06
          13.886322975 -29.743835449 0.71642619371 0.72383314371 -4.3580336571 -0.37400245667
          1.9167866707 -24.995576859 0.43066290021 1.0009138584 -8.2412424088 8.3372219706e-07
          0.018113201484 -10.419379234 0.0052197733894 5.9726376534 -29.30027771 5.4526822169e-06
          23.67745018 -34.842788696 -0.9373717308 0 0 0
          -2.9880020618 -18.189334869 0.75711661577 -0.53486764431 -25.02775383 0.19531930983
          0 0 0 19.340528488 -34.407150269 -0.82033145428
          0.097812205553 -18.418041229 -0.44204553962 0.015022005886 -13.120077133 0.0029005510733
          1.733784318 -1.4142245054 -0.73396348953 -2.2051591873 -21.571699142 -0.72053283453
          23.688694 -34.929431915 -0.46800786257 9.8488864899 -29.437763214 0.60135549307
          19.351089478 -34.493339539 -0.40964010358 1.9967336655 -1.5764869452 -0.25943896174
          -0.24739554524 -15.441818237 0.50741010904 0.11557112634 -18.649759293 -0.23226554692
          0.98496973515 -6.2126102448 -0.60959637165 2.5265483856 -29.059879303 -0.42966166139
          0.99754184484 -8.2370214462 -0.28458628058 -3.09877038 -21.349861145 0.44753915071
          0.86018455029 -10.262583733 0.59685242176 5.9712576866 -29.27602005 0.24954026937
          -2.200425148 -21.599344254 -0.33413919806 0.82892239094 -10.453184128 0.28000891209
          2.5290446281 -29.110147476 -0.21020798385 15.060490608 -34.036174774 -0.70513236523
          23.691585541 -34.957859039 7.3885403253e-06 3.0679829121 -2.7526967525 -0.26315587759
          0 0 0 15.068299294 -34.119525909 -0.35158652067
          3.2726027966 -2.7815411091 -0.1283955425 19.354301453 -34.521469116 7.1847393883e-06
          -2.748064518 -25.079647064 -0.43872055411 0.11195775121 -18.696325302 2.5852441468e-06
          -2.2163929939 -21.625989914 3.1764052437e-06 0.011007918976 -15.509890556 -0.0051511018537
          2.3264360428 -1.6429082155 1.8227514431e-07 -2.7413761616 -25.05962944 -0.22499334812
          2.5303285122 -29.128124237 5.222636446e-06 0.011113883927 -15.804330826 -0.0028716318775
          0.81738269329 -10.47441864 1.2392131339e-06 -0.53806769848 -25.018836975 0.39043220878
          15.070603371 -34.146709442 6.9589823397e-06 0.014958313666 -12.828744888 0.0052452934906
          3.3269095421 -2.8009493351 4.108571261e-07 10.823107719 -33.731342316 -0.59523278475
          23.688695908 -34.929428101 0.46802264452 -2.7427213192 -25.075424194 3.9997121348e-06
          3.8475148678 -4.5673770905 0.094544671476 1.0082247257 -8.0969200134 -0.6353058219
          0.011202504858 -15.859817505 2.0595964543e-06 5.9690790176 -29.206451416 0.50232976675
          0 0 0 10.828159332 -33.808898926 -0.2968070209
          3.9914963245 -4.4875144958 0.020817445591 19.351091385 -34.493339539 0.4096544981
          0.11557225883 -18.649759293 0.23227071762 -2.2004234791 -21.599344254 0.33414557576
          1.9967337847 -1.5764869452 0.25943931937 2.5290467739 -29.110145569 0.21021845937
          0.82892304659 -10.453184128 -0.2800064683 15.068301201 -34.119522095 0.35160046816
          10.829792976 -33.834705353 6.7105720518e-06 -0.10955352336 -29.023172379 -0.38055673242
          0.60151398182 -12.736984253 0.54751014709 4.0091109276 -4.4900770187 6.8757367444e-07
          3.272603035 -2.7815408707 0.12839637697 0.57573223114 -12.950480461 0.26706829667
          -2.7413740158 -25.059627533 0.22500137985 -0.10391329229 -29.039712906 -0.19092464447
          0.011114805937 -15.804330826 0.0028757574037 6.7652845383 -33.49344635 -0.50110411644
          23.677455902 -34.842788696 0.93738657236 0 0 0
          4.2374162674 -6.7533688545 0.36477515101 6.7675251961 -33.560630798 -0.24872456491
          19.34053421 -34.407150269 0.82034593821 4.3539390564 -6.6495370865 0.14581173658