<?xml version="1.0"?>
<VTKFile type="UnstructuredGrid" version="0.1" byte_order="LittleEndian" header_type="UInt32" compressor="vtkZLibDataCompressor">
  <UnstructuredGrid>
    <Piece NumberOfPoints="6405" NumberOfCells="4800">
      <PointData>
        <DataArray type="Float32" Name="DISPLACEMENT" NumberOfComponents="3" ComponentName0="X-DISPLACEMENT" ComponentName1="Y-DISPLACEMENT" ComponentName2="Z-DISPLACEMENT" format="ascii" RangeMin="0" RangeMax="230.6898346">
          0 0 0 0 0 0
          2.0811390877 -1.2152016163 -1.0063744783 0 0 0
          1.5547194481 -0.67778718472 -0.89494669437 0 0 0
          1.8859086037 -1.3145298958 -0.41428905725 1.3602668047 -0.76730251312 -0.361669451
          0 0 0 3.7577049732 -1.8375242949 -1.0553414822
          0 0 0 3.7009775639 -1.981205225 -0.55334621668
          3.1841807365 -1.319524169 -0.92271524668 0 0 0
          0 0 0 1.8908840418 -1.3676310778 1.0956588881e-07
          1.8628162146 -0.31939092278 -0.80370813608 1.3585516214 -0.80006736517 1.5862299918e-08
          3.1321089268 -1.4448775053 -0.47563570738 1.7544119358 -0.44815298915 -0.31578907371
          3.6594591141 -2.0265407562 2.0731367556e-07 3.0396301746 -0.79634600878 -0.69076442719
          0 0 0 3.0909957886 -1.4889883995 4.6366878337e-08
          2.9947724342 -0.94889062643 -0.36409771442 0 0 0
          5.3872294426 -2.6907277107 -1.0067212582 0 0 0
          1.7388757467 -0.45928290486 -1.1361692032e-07 0 0 0
          0 0 0 1.8859086037 -1.3145296574 0.41428926587
          4.6362667084 -2.2421784401 -0.86882412434 5.4064874649 -2.8037106991 -0.51544773579
          2.8872699738 -0.45515722036 -0.29462778568 1.3602668047 -0.76730233431 0.3616694808
          4.652882576 -2.3544354439 -0.44251349568 2.8912818432 -0.68947434425 -0.2075791806
          2.9590804577 -0.98023164272 -1.2691579343e-07 3.7009775639 -1.9812048674 0.55334663391
          0 0 0 0 0 0
          2.8808972836 -0.47693100572 -0.34312808514 4.2178645134 -1.8859460354 -0.71114623547
          5.3955745697 -2.8475553989 3.1327851957e-07 3.1321091652 -1.4448772669 0.47563579679
          4.2030258179 -1.9986331463 -0.36351457238 1.754412055 -0.44815278053 0.31578886509
          4.6449975967 -2.392898798 9.6186518306e-08 2.8287496567 -0.66340857744 -0.22169916332
          2.8429543972 -0.68857270479 -3.0461876577e-07 0 0 0
          6.8896903992 -3.7523972988 -0.90261811018 0 0 0
          5.9528870583 -3.3682656288 -0.80451357365 2.9947724342 -0.9488902688 0.3640974462
          6.9335608482 -3.8358502388 -0.45906153321 2.0811390877 -1.2152012587 1.0063745975
          0 0 0 0 0 0
          2.8261668682 -0.69804728031 -2.993214423e-07 4.199429512 -2.036138773 -1.2409938677e-07
          1.142469883 -0.18279388547 -0.72684460878 5.9926872253 -3.4520623684 -0.40623518825
          1.5547194481 -0.67778676748 0.89494669437 3.5585768223 -1.5658324957 -0.60167759657
          0 0 0 5.4064869881 -2.8037102222 0.51544839144
          0.97765415907 -0.19690072536 -0.23279289901 3.5263962746 -1.6586967707 -0.29024282098
          4.6528830528 -2.354434967 0.4425137043 2.8912820816 -0.68947410583 0.20757858455
          5.2411704063 -3.1021828651 -0.72197252512 2.4358837605 -0.83516204357 -0.77026456594
          6.9368100166 -3.8674497604 4.2013365942e-07 3.7577049732 -1.8375236988 1.055341959
          0 0 0 0 0 0
          5.2619709969 -3.1903195381 -0.36169779301 3.1841807365 -1.3195234537 0.92271536589
          5.9998035431 -3.4854545593 1.5471718484e-07 2.3962132931 -0.8594943881 -0.35604965687
          1.8628163338 -0.31939047575 0.80370789766 0.99106842279 -0.25052836537 -2.137148698e-07
          3.5392971039 -1.6961284876 -3.4789070469e-07 4.2030258179 -1.9986326694 0.36351433396
          2.8287498951 -0.66340827942 0.22169855237 5.2635340691 -3.2262248993 -1.1085512597e-07
          3.0396304131 -0.79634535313 0.69076418877 2.3797941208 -0.90628713369 -3.962103392e-07
          4.8215909004 -2.9337291718 -0.63578790426 6.9335608482 -3.835849762 0.45906236768
          5.3872294426 -2.6907269955 1.0067218542 0 0 0
          8.2584581375 -4.9177703857 -0.81479614973 0 0 0
          0 0 0 3.4983789921 -1.5213811398 -0.8568213582
          4.8415369987 -3.0478100777 -0.28414216638 8.303062439 -4.982796669 -0.41139927506
          7.1700940132 -4.5503621101 -0.73326283693 5.9926872253 -3.4520618916 0.40623551607
          0.92314523458 -0.088991470635 -0.60364252329 0 0 0
          4.6362667084 -2.2421774864 0.86882430315 2.8872702122 -0.45515668392 0.29462715983
          3.5691506863 -1.5412302017 -0.33976489305 0.97765415907 -0.19690051675 0.23279248178
          0.79340845346 -0.13980862498 -0.25684037805 3.5263962746 -1.6586962938 0.29024213552
          7.2129359245 -4.6211075783 -0.36952498555 5.2619714737 -3.1903190613 0.36169758439
          4.8319368362 -3.0775756836 -4.0768372855e-07 8.3128137589 -5.0074853897 5.2244274684e-07
          1.7553267479 -0.60089421272 -0.67733228207 2.3962132931 -0.85949409008 0.35604888201
          0 0 0 6.294585228 -4.219540596 -0.64401715994
          2.880897522 -0.47693032026 0.34312748909 4.2178645134 -1.8859452009 0.71114599705
          3.5434355736 -1.5775592327 -5.5734739135e-07 7.2232866287 -4.6478533745 2.1707589326e-07
          0.79158121347 -0.13867893815 -2.0031005477e-07 1.7193892002 -0.65991735458 -0.35617014766
          6.3314285278 -4.3032808304 -0.32284486294 6.8896903992 -3.7523963451 0.90261894464
          0 0 0 5.009683609 -3.0492360592 -0.22130258381
          5.9528870583 -3.3682644367 0.80451393127 1.6983921528 -0.67165726423 -4.3170558683e-07
          5.0111913681 -3.2398607731 -0.14610555768 6.3387656212 -4.3297367096 -8.816392949e-08
          1.1424696445 -0.18279357255 0.72684419155 4.8415369987 -3.0478093624 0.28414136171
          5.692276001 -3.9288592339 -0.48771822453 8.303062439 -4.9827961922 0.41140031815
          2.6074333191 -1.4139862061 -0.61168450117 3.5585770607 -1.5658316612 0.60167688131
          0 0 0 3.5691506863 -1.5412297249 0.33976376057
          5.6896486282 -4.0323443413 -0.24957452714 0.79340839386 -0.13980849087 0.25683999062
          2.6413507462 -1.4906667471 -0.31114178896 7.2129364014 -4.6211066246 0.36952543259
          5.2411704063 -3.102181673 0.7219722867 2.435883522 -0.83516150713 0.77026385069
          9.5325050354 -6.1622257233 -0.75128829479 0 0 0
          4.9950146675 -3.2510917187 -7.5586939374e-07 8.3293685913 -5.8078327179 -0.67625516653
          9.5690593719 -6.2199954987 -0.37740978599 0 0 0
          0.67708009481 -0.056587997824 -0.46874374151 8.364991188 -5.8711447716 -0.33859342337
          5.6644215584 -4.0357136726 -4.0657928935e-07 0.56951475143 -0.12611331046 -0.19704802334
          1.7193892002 -0.65991711617 0.35616928339 2.6350221634 -1.497228384 -6.7162534378e-07
          6.3314285278 -4.3032803535 0.32284468412 7.3111844063 -5.4975585938 -0.59138286114
          1.2790608406 -0.5189987421 -0.53011071682 9.5794696808 -6.2411561012 6.1952806618e-07
          0 0 0 1.2466657162 -0.6051428318 -0.27618965507
          7.3374547958 -5.5689144135 -0.29532751441 8.3764715195 -5.8940200806 2.817997995e-07
          0.5697183013 -0.1348503828 -1.9485770508e-07 4.8215909004 -2.9337279797 0.6357870698
          5.0426864624 -3.6903071404 -0.27027848363 8.2584581375 -4.9177689552 0.81479722261
          0 0 0 3.3789372444 -2.6848955154 -0.44064110518
          5.0111913681 -3.2398600578 0.14610405266 3.4983787537 -1.5213804245 0.85682040453
          7.1700940132 -4.5503606796 0.73326325417 0.92314499617 -0.088991239667 0.60364210606
          3.420634985 -2.7258064747 -0.2102111429 4.991897583 -3.8258965015 -0.1413911283
          5.6896486282 -4.0323433876 0.24957370758 2.6413507462 -1.4906663895 0.31114044785
          7.3429646492 -5.5930666924 -5.1612719432e-08 1.2273478508 -0.62418454885 -4.5482525479e-07
          6.4459424019 -5.2937951088 -0.49279427528 1.8762000799 -1.3381193876 -0.49496927857
          1.7553263903 -0.60089385509 0.6773314476 9.5690593719 -6.2199950218 0.37741100788
          6.2945857048 -4.2195396423 0.64401692152 0 0 0
          4.9662041664 -3.8649389744 -7.3298593861e-07 3.4184846878 -2.7634050846 -8.7814868266e-07
          6.453608036 -5.3537054062 -0.23644919693 8.364991188 -5.8711438179 0.33859398961
          1.8998205662 -1.4173374176 -0.25205078721 0.56951463223 -0.12611320615 0.19704763591
          5.0096840858 -3.0492346287 0.2213010639 6.480091095 -5.3652200699 -3.897721399e-07
          7.3374547958 -5.5689139366 0.295327425 1.2466654778 -0.60514265299 0.276188761
          1.8948488235 -1.4387277365 -7.340445336e-07 10.736510277 -7.5033655167 -0.70726728439
          0 0 0 10.764819145 -7.5584673882 -0.35405507684
          5.692276001 -3.9288578033 0.48771739006 9.416097641 -7.173230648 -0.63474673033
          2.6074330807 -1.4139854908 0.61168318987 4.3778409958 -3.8396537304 -0.50644791126
          0.47716638446 -0.061179719865 -0.33278423548 3.4206347466 -2.7258059978 0.21020941436
          4.991897583 -3.8258957863 0.14138965309 0 0 0
          9.4431858063 -7.2315378189 -0.31698918343 4.3574280739 -3.8601088524 -0.14370712638
          0.39808544517 -0.13265094161 -0.13908690214 5.7358021736 -5.2439126968 -0.44806596637
          2.541898489 -2.4186913967 -0.41778796911 9.5325059891 -6.1622242928 0.75128954649
          0 0 0 8.3293685913 -5.8078312874 0.67625576258
          10.774263382 -7.5778903961 7.133758686e-07 2.5763750076 -2.4811415672 -0.21019503474
          5.5979437828 -5.236661911 -0.20057448745 0.67707979679 -0.05658781901 0.46874329448
          8.2344055176 -6.8986082077 -0.55975782871 0.89353990555 -0.50255560875 -0.38245770335
          0 0 0 6.453608036 -5.3537049294 0.23644840717
          1.899820447 -1.41733706 0.2520493567 9.4520454407 -7.2522535324 3.4867724708e-07
          4.2678341866 -3.9590573311 -1.0326573374e-06 8.2585945129 -6.9599189758 -0.28063887358
          0.86692291498 -0.5913836956 -0.19804865122 0.39693129063 -0.1451126039 -1.9564915021e-07
          7.3111844063 -5.4975571632 0.59138280153 1.2790603638 -0.51899838448 0.53010982275
          5.366953373 -5.1249241829 -7.4287027019e-07 2.5732283592 -2.5078680515 -9.9816293186e-07
          5.0426864624 -3.6903057098 0.27027699351 8.2677526474 -6.9815216064 -9.8396419901e-09
          0.8521681428 -0.61492222548 -4.7503502287e-07 3.3789367676 -2.6848948002 0.44063946605
          10.764819145 -7.5584664345 0.35405650735 7.177760601 -6.6886048317 -0.48890918493
          0 0 0 1.3286248446 -1.2623810768 -0.36407157779
          7.1842036247 -6.7646789551 -0.2505274713 9.4431858063 -7.2315368652 0.31698989868
          0.39808532596 -0.1326508671 0.13908649981 4.3574280739 -3.8601083755 0.14370508492
          1.3405133486 -1.349339962 -0.1883431375 6.4459424019 -5.2937936783 0.49279347062
          5.1529092789 -5.3651199341 -0.32321625948 5.5979437828 -5.2366609573 0.20057299733
          1.8761994839 -1.3381187916 0.49496784806 2.5763747692 -2.4811413288 0.21019306779
          3.1598923206 -3.6405856609 -0.35786598921 5.3042378426 -5.4096074104 -0.26284492016
          7.1820082664 -6.8046021461 -3.6861629837e-07 8.2585945129 -6.959918499 0.28063887358
          0.86692267656 -0.59138357639 0.19804768264 3.1916286945 -3.6850643158 -0.18656663597
          1.3379735947 -1.3742595911 -7.8705130591e-07 11.878554344 -8.9479551315 -0.67536616325
          0 0 0 0.30338263512 -0.075099654496 -0.21221528947
          4.7427015305 -5.0203118324 -1.1161067732e-06 6.2398991585 -6.5123143196 -0.40762767196
          10.434945107 -8.6370582581 -0.60250103474 10.73651123 -7.5033640862 0.7072687149
          0 0 0 0 0 0
          3.2035050392 -3.7136366367 -1.2239103171e-06 1.7795366049 -2.2792389393 -0.32064548135
          11.900265694 -9.0031547546 -0.33789774776 6.2648706436 -6.6349463463 -0.23765689135
          10.456941605 -8.694196701 -0.30114918947 9.416097641 -7.1732292175 0.63474744558
          0.25205254555 -0.1428245604 -0.087927594781 4.377840519 -3.8396525383 0.50644600391
          0.47716599703 -0.06117958203 0.33278372884 1.8073552847 -2.3541502953 -0.16432203352
          7.1842036247 -6.7646780014 0.25052672625 1.3405131102 -1.3493397236 0.18834157288
          9.1000623703 -8.3789329529 -0.52879542112 5.7358021736 -5.2439112663 0.44806444645
          2.5418977737 -2.4186906815 0.41778609157 0 0 0
          0.5697145462 -0.49794524908 -0.24505361915 11.908111572 -9.0222358704 8.0904504784e-07
          0.25097826123 -0.15650068223 -1.9942123686e-07 6.254389286 -6.7093839645 -7.3904686815e-07
          9.1210832596 -8.4393911362 -0.26521542668 8.2344055176 -6.8986067772 0.55975776911
          10.464507103 -8.714015007 4.1988982957e-07 0.8935392499 -0.50255537033 0.38245671988
          1.8140271902 -2.3787686825 -1.0925759852e-06 0.55106717348 -0.5843064189 -0.12652170658
          5.3042378426 -5.4096069336 0.26284265518 3.1916284561 -3.685063839 0.18656422198
          3.7261147499 -5.0811414719 -0.28830513358 9.1267824173 -8.4618673325 3.4723797171e-08
          0.54128313065 -0.6089015007 -4.9606080665e-07 3.7147061825 -5.1009612083 -0.16460290551
          7.8830690384 -8.1807794571 -0.45277151465 0 0 0
          0.84511911869 -1.2217148542 -0.23661404848 11.900265694 -9.003153801 0.33789938688
          0.25205242634 -0.1428244859 0.087927184999 6.2648706436 -6.6349458694 0.23765540123
          7.8996014595 -8.2450237274 -0.22822107375 7.1777610779 -6.6886029243 0.48890843987
          10.456941605 -8.6941957474 0.30115005374 5.1764817238 -6.3397388458 -0.20530055463
          2.2300412655 -3.4973676205 -0.27981072664 1.3286241293 -1.2623807192 0.36407002807
          0.85154896975 -1.3092774153 -0.1219715327 1.8073549271 -2.3541500568 0.16431987286
          5.3245568275 -6.5465445518 -0.11772473156 2.2598559856 -3.5610542297 -0.13973768055
          3.791040659 -5.0663971901 -1.4094511016e-06 5.1529092789 -5.3651185036 0.3232139647
          9.1210842133 -8.4393911362 0.26521548629 3.1598918438 -3.6405847073 0.35786366463
          7.8988432884 -8.2671022415 -3.4690253869e-07 0.55106693506 -0.58430629969 0.1265206933
          0.85030573606 -1.3356903791 -8.3449032218e-07 5.6398758888 -6.869987011 -1.1190762734e-06
          2.2717685699 -3.574944973 -1.3739306723e-06 1.1359182596 -2.2016768456 -0.2115060389
          6.7551074028 -8.0642976761 -0.35264194012 11.878554344 -8.9479532242 0.67536783218
          0 0 0 3.7147059441 -5.1009607315 0.1646001339
          0.30338221788 -0.075099550188 0.21221478283 1.1528480053 -2.2812111378 -0.10784205794
          6.2398991585 -6.5123128891 0.40762615204 10.434945107 -8.6370573044 0.6025018692
          6.7870621681 -8.1194248199 -0.16521030664 12.974778175 -10.492434502 -0.65444028378
          0 0 0 1.7795358896 -2.2792384624 0.32064336538
          12.991743088 -10.55092144 -0.32706359029 0.14545065165 -0.084112524986 -0.10115230083
          11.403536797 -10.194211006 -0.57623296976 7.8996014595 -8.2450227737 0.22822038829
          0 0 0 0.85154861212 -1.3092772961 0.12196986377
          11.421367645 -10.253845215 -0.28773373365 0.12085565925 -0.14875939488 -0.041801035404
          5.3245568275 -6.546544075 0.11772248149 2.2598557472 -3.5610537529 0.13973496854
          9.100063324 -8.3789310455 0.52879548073 1.1570938826 -2.305658102 -1.1740104355e-06
          6.808924675 -8.1202812195 -7.2035618359e-07 0.56971383095 -0.49794504046 0.24505256116
          4.303961277 -6.4632806778 -0.29165667295 0.27347293496 -0.49719357491 -0.11694923043
          9.9159460068 -9.9542284012 -0.49780794978 2.6709270477 -4.8642902374 -0.236700207
          12.998657227 -10.570570946 9.1812387382e-07 0 0 0
          4.296561718 -6.5296807289 -0.08215880394 11.427388191 -10.273989677 5.0489069281e-07
          0.12027868629 -0.16242559254 -2.0649633825e-07 9.9360437393 -10.013662338 -0.2481020838
          0.26444330812 -0.5806017518 -0.060220316052 2.6992843151 -4.9171762466 -0.11872400343
          3.7261145115 -5.0811400414 0.28830248117 4.1851568222 -6.573931694 -1.4894172864e-06
          1.4313766956 -3.3886430264 -0.18332661688 1.1528476477 -2.2812108994 0.10783971846
          5.7100567818 -8.0456619263 -0.28016480803 9.9411029816 -10.033377647 8.5308386133e-08
          7.8830695152 -8.1807775497 0.4527707994 6.7870621681 -8.1194238663 0.16520884633
          2.6899101734 -4.9394316673 -1.6230752635e-06 0.25975689292 -0.60510897636 -5.1925695743e-07
          0.84511834383 -1.2217146158 0.23661237955 12.991743088 -10.550920486 0.32706543803
          8.5388784409 -9.7848367691 -0.41819265485 1.4504503012 -3.4580695629 -0.093431726098
          0.40713641047 -1.2002965212 -0.11310501397 5.6582255363 -8.0586709976 -0.092554241419
          5.1764817238 -6.3397374153 0.20529827476 2.2300407887 -3.4973669052 0.27980810404
          0 0 0 0.41005715728 -1.2866361141 -0.05817874521
          11.421368599 -10.253844261 0.28773474693 0.12085552514 -0.14875935018 0.041800610721
          8.5602035522 -9.8407554626 -0.20760761201 1.4548416138 -3.4808785915 -1.4934744286e-06
          5.5768923759 -7.9632620811 -1.1210239563e-06 4.2965612411 -6.5296797752 0.082155764103
          8.5662508011 -9.8573999405 -3.3061439808e-07 0.40945512056 -1.3131375313 -8.7968675189e-07
          9.936044693 -10.013661385 0.24810226262 0.26444303989 -0.5806016922 0.06021925807
          2.6992840767 -4.9171762466 0.11872079968 1.1359174252 -2.2016763687 0.21150374413
          6.7551074028 -8.0642967224 0.35264045 7.2709112167 -9.6751470566 -0.34359624982
          12.974778175 -10.492432594 0.65444219112 0 0 0
          0.54920828342 -2.1563522816 -0.10098744184 0.14545020461 -0.08411245048 0.10115177184
          11.40353775 -10.194209099 0.57623404264 1.4504499435 -3.4580693245 0.093428760767
          5.6582255363 -8.0586700439 0.092552006245 7.2789750099 -9.7329483032 -0.16846512258
          3.0661118031 -6.3534822464 -0.19890631735 0.55741751194 -2.2367031574 -0.051555618644
          0.41005679965 -1.2866359949 0.058176986873 8.5602035522 -9.840754509 0.20760695636
          3.0836758614 -6.3931164742 -0.10156971216 4.7191252708 -8.1516475677 -0.18236631155
          1.7171447277 -4.7423634529 -0.15822070837 14.049233437 -12.147966385 -0.64097803831
          0 0 0 12.335017204 -11.85229969 -0.55493491888
          4.3039608002 -6.4632797241 0.29165375233 0.2734721899 -0.4971934557 0.1169481203
          9.9159460068 -9.9542264938 0.4978081286 1.7348650694 -4.802218914 -0.079491578043
          4.7739648819 -8.1800689697 -0.14063841105 2.6709263325 -4.8642897606 0.23669712245
          14.06247139 -12.211464882 -0.31952485442 0 0 0
          0.5592186451 -2.2625701427 -1.2442881143e-06 7.282740593 -9.7535963058 -7.285520951e-07
          -0.0061116563156 -0.085671655834 0.0051391562447 12.349675179 -11.916127205 -0.27609696984
          -0.0045923278667 -0.1492190659 0.0021154421847 3.1010875702 -6.4067225456 -1.8473803038e-06
          10.680477142 -11.625832558 -0.46585157514 1.7432173491 -4.821310997 -1.7807971062e-06
          4.6163854599 -8.0195989609 -1.658129122e-06 14.068030357 -12.232209206 1.0603670262e-06
          0 0 0 -0.0097444653511 -0.49424949288 0.0067095411941
          10.698863983 -11.686785698 -0.23116861284 12.354281425 -11.936423302 6.2465710471e-07
          1.4313758612 -3.3886425495 0.18332374096 5.7100567818 -8.0456600189 0.28016254306
          -0.0044835070148 -0.16281838715 -2.1694674501e-07 -0.0086845681071 -0.57655370235 0.0034029299859
          8.5388784409 -9.7848348618 0.418192029 0.40713551641 -1.200296402 0.11310324818
          0.69463151693 -3.3244638443 -0.087727129459 6.088309288 -9.5895729065 -0.26783749461
          0.55741709471 -2.2367031574 0.051553145051 7.2789750099 -9.7329473495 0.16846366227
          0.70420092344 -3.396023035 -0.044248886406 6.0833015442 -9.6730699539 -0.14889630675
          3.0836756229 -6.3931159973 0.10156606138 10.703410149 -11.705355644 1.5554923039e-07
          -0.0082869296893 -0.60088592768 -5.4502561397e-07 9.1438674927 -11.4783144 -0.38463109732
          1.734864831 -4.8022184372 0.079488053918 4.7739644051 -8.1800670624 0.14063547552
          14.06247139 -12.211463928 0.31952700019 0 0 0
          -0.011767801829 -1.189081192 0.0075685833581 9.1623353958 -11.531799316 -0.18906064332
          12.349675179 -11.916126251 0.27609822154 -0.011120939627 -1.2747706175 0.0038434385788
          0.70743924379 -3.4193618298 -1.5890174154e-06 6.0623264313 -9.71875 -1.094597792e-06
          -0.0045924647711 -0.1492190361 -0.0021158880554 10.698863983 -11.686784744 0.23116894066
          9.1639232635 -11.548923492 -3.233340351e-07 -0.010851045139 -1.3013426065 -9.2333544899e-07
          7.2709112167 -9.6751451492 0.3435947597 3.4482970238 -7.97159338 -0.15515509248
          -0.0086848558858 -0.57655370235 -0.0034040401224 0.54920738935 -2.1563520432 0.1009850055
          1.9867358208 -6.2331109047 -0.13527598977 3.4340293407 -7.997127533 -0.08137755841
          3.0661113262 -6.3534812927 0.19890289009 2.0025990009 -6.2839331627 -0.06698730588
          0.70420050621 -3.396023035 0.044245731086 6.0833015442 -9.6730690002 0.14889410138
          4.719124794 -8.1516456604 0.18236334622 1.7171440125 -4.7423629761 0.1582172811
          -0.012226419523 -2.1358487606 0.0081532644108 7.759657383 -11.389425278 -0.32127320766
          14.049233437 -12.147964478 0.64098024368 0 0 0
          12.335018158 -11.852297783 0.55493623018 -0.011749099009 -2.2161111832 0.0041158390231
          3.4405698776 -7.9994320869 -2.2494316454e-06 0.83796054125 -4.6671667099 -0.074791669846
          4.7357764244 -9.4647836685 -0.13654233515 7.7640900612 -11.430800438 -0.15427312255
          -0.0061121336184 -0.08567161113 -0.0051397141069 2.0048134327 -6.2986278534 -2.0377458441e-06
          9.1623353958 -11.531798363 0.18906000257 -0.01112132147 -1.2747706175 -0.0038452853914
          4.8114790916 -9.6159648895 -0.062583841383 0.84739476442 -4.7295041084 -0.037693694234
          10.680478096 -11.62583065 0.46585193276 -0.011563652195 -2.2420451641 -1.3063199731e-06
          7.7593398094 -11.44197464 -7.7279315747e-07 -0.0097452420741 -0.49424943328 -0.0067107002251
          5.0117707253 -9.8451070786 -1.4081803101e-06 15.115112305 -13.942795753 -0.62991017103
          0 0 0 0.85005611181 -4.7498841286 -1.8942231463e-06
          15.125450134 -14.009508133 -0.31271645427 0 0 0
          3.4340295792 -7.9971265793 0.081373475492 13.252555847 -13.643419266 -0.53553307056
          0.69463056326 -3.3244636059 0.087724044919 6.088309288 -9.5895709991 0.26783525944
          -0.15781916678 -0.079210266471 0.11149901152 2.0025987625 -6.2839326859 0.066983282566
          13.263143539 -13.709976196 -0.26684787869 -0.13017855585 -0.14391611516 0.046064704657
          9.1438674927 -11.478312492 0.38463050127 15.128817558 -14.03020668 1.2615037122e-06
          -0.011749522761 -2.2161111832 -0.0041184378788 11.410157204 -13.387926102 -0.43981206417
          -0.29328989983 -0.48759877682 0.13042634726 7.7640895844 -11.430799484 0.15427158773
          0 0 0 6.4471096992 -11.359354019 -0.25633168221
          -0.010948785581 -3.2958965302 0.0087690865621 -0.011768739671 -1.1890810728 -0.0075704324991
          -0.28215619922 -0.57105600834 0.067065730691 11.421985626 -13.452635765 -0.21521927416
          13.266243935 -13.730257988 8.0981777728e-07 4.8114786148 -9.6159639359 0.062580935657
          -0.010444005951 -3.3676223755 0.0043806317262 6.4367866516 -11.365359306 -0.10595946014
          0.84739434719 -4.7295041084 0.037689935416 -0.12938848138 -0.1575807035 -2.3050017717e-07
          2.2371807098 -7.8399934769 -0.11322030425 11.42442894 -13.469526291 2.8966562127e-07
          3.4482967854 -7.9715919495 0.15515127778 -0.27667877078 -0.59556096792 -5.7261331676e-07
          -0.010263720527 -3.3911848068 -1.6677823851e-06 2.2437114716 -7.884791851 -0.050444383174
          6.4294362068 -11.334143639 -1.1563630551e-06 1.9867351055 -6.2331104279 0.13527208567
          15.125450134 -14.009507179 0.31271898746 9.6728105545 -13.264154434 -0.33273428679
          0.97365385294 -6.1535425186 -0.062522061169 0 0 0
          -0.43117588758 -1.1859227419 0.12826265395 3.9473416805 -9.7389888763 -0.20959573984
          -0.43284904957 -1.2722526789 0.065889969468 9.6843557358 -13.310805321 -0.16984167695
          13.263144493 -13.709975243 0.26684951782 0.98187458515 -6.208147049 -0.031569316983
          3.8277180195 -9.7569704056 0.052807960659 -0.13017868996 -0.14391613007 -0.046065174043
          -0.012227415107 -2.1358485222 -0.0081558218226 7.759657383 -11.38942337 0.32127165794
          2.2403824329 -7.9021234512 -2.2528665795e-06 0.83795970678 -4.6671667099 0.07478800416
          4.7357759476 -9.4647827148 0.13653934002 9.6830644608 -13.325596809 -3.2097938174e-07
          11.421985626 -13.452634811 0.21521988511 0.98475074768 -6.2265701294 -2.1461742108e-06
          -0.28215649724 -0.57105600834 -0.067066892982 -0.431727916 -1.29872787 -9.6415340067e-07
          -0.010444436222 -3.3676221371 -0.0043839421123 6.4367866516 -11.365358353 0.10595712811
          3.660119772 -9.659160614 -2.4721739464e-06 5.2020578384 -11.422124863 -0.22908963263
          -0.0080336136743 -4.6323523521 0.0095028020442 5.0817952156 -11.359946251 -0.062640808523
          -0.0072356741875 -4.6953239441 0.0046911486425 15.115113258 -13.942793846 0.62991279364
          0 0 0 2.2437109947 -7.884791851 0.050439827144
          -0.57421308756 -2.136952877 0.11724373698 8.2237606049 -13.197285652 -0.30119723082
          -0.58156490326 -2.2171616554 0.05976915732 13.252556801 -13.643417358 0.53553473949
          -0.15781965852 -0.079210266471 -0.11149959266 8.2214317322 -13.222083092 -0.14655023813
          9.6843557358 -13.310804367 0.169841066 0.98187416792 -6.208147049 0.031565055251
          -0.432849437 -1.2722526789 -0.065891899168 3.8277187347 -9.7569732666 -0.052814364433
          4.9369034767 -11.225850105 -1.5287489532e-06 -0.0068233557977 -4.7162156105 -1.9867300125e-06
          11.410158157 -13.387924194 0.43981271982 -0.29329067469 -0.48759877682 -0.13042755425
          6.4471092224 -11.359352112 0.25632929802 -0.58302748203 -2.2429463863 -1.3587241483e-06
          -0.010949761607 -3.2958962917 -0.0087723210454 8.2217159271 -13.229187965 -8.8217484517e-07
          16.169124603 -15.907646179 -0.61383682489 0 0 0
          2.2371799946 -7.839993 0.11321590841 5.0817947388 -11.359945297 0.062637783587
          0 0 0 14.15798378 -15.610482216 -0.52486157417
          1.0952343941 -7.7704482079 -0.052281003445 -0.0072360974737 -4.6953239441 -0.0046950886026
          -0.31619742513 -0.065502248704 0.22277373075 2.4436137676 -9.6116676331 -0.076840102673
          16.177230835 -15.970083237 -0.30466556549 9.6728105545 -13.264152527 0.33273375034
          14.163680077 -15.67295742 -0.26153406501 -0.2618047893 -0.13332825899 0.092295773327
          0.97365301847 -6.1535420418 0.062517903745 1.1035921574 -7.8149447441 -0.027663135901
          -0.43117684126 -1.1859227419 -0.1282645762 6.8493771553 -13.129545212 -0.27154350281
          -0.58156532049 -2.2171616554 -0.05977185443 3.947343111 -9.7389888763 0.20959116518
          -0.71683168411 -3.2997009754 0.10498017818 8.2214317322 -13.222082138 0.1465484947
          2.4434752464 -9.615445137 -0.074955418706 -0.72554796934 -3.370872736 0.052913628519
          6.8239545822 -13.129575729 -0.11958544701 12.189340591 -15.334300041 -0.42822596431
          16.177909851 -15.989233971 1.5437520915e-06 -0.59056478739 -0.47913855314 0.25871965289
          0 0 0 12.185994148 -15.397059441 -0.21241055429
          -0.5698658824 -0.56556344032 0.13349626958 14.165703773 -15.691324234 1.0863346915e-06
          4.0638670921 -11.534150124 -0.23219400644 1.1085211039 -7.8270974159 -2.2829146928e-06
          2.4572970867 -9.5825414658 -2.0719614895e-06 -0.003173975274 -6.1158275604 0.010425214656
          -0.26053193212 -0.14698760211 -2.4627007633e-07 4.0746674538 -11.519865036 -0.13044683635
          6.8210511208 -13.109148026 -1.3407424149e-06 -0.0015313705662 -6.1704759598 0.0049275578931
          -0.72843980789 -3.394084692 -1.7303623281e-06 5.2020568848 -11.422123909 0.22908653319
          12.187325478 -15.412018776 5.4795538063e-07 -0.0080345310271 -4.6323523521 -0.0095066418871
          -0.55931687355 -0.59012103081 -5.9938668073e-07 10.069068909 -15.083078384 -0.30875483155
          16.177230835 -15.970082283 0.30466866493 3.9058773518 -11.316193581 -1.6766042563e-06
          -0.87085020542 -1.1933988333 0.25186246634 -0.57421410084 -2.1369531155 -0.11724638194
          -0.00054837740026 -6.1884484291 -2.2413044007e-06 8.2237596512 -13.197284698 0.30119553208
          0 0 0 10.068604469 -15.135193825 -0.16617968678
          -0.87615680695 -1.2809118032 0.12977550924 14.163680077 -15.672956467 0.26153624058
          1.1035916805 -7.8149447441 0.027658561245 2.4434747696 -9.615445137 0.074951097369
          -0.26180490851 -0.13332830369 -0.092296272516 6.8239541054 -13.129574776 0.1195827648
          -0.72554838657 -3.370872736 -0.052917059511 12.185995102 -15.397058487 0.21241168678
          10.07331562 -15.152462959 -1.1287754376e-07 5.4899482727 -13.119645119 -0.25466787815
          -0.85322099924 -4.6367621422 0.09335912019 -0.87443137169 -1.3072425127 -9.9753719951e-07
          -0.56986618042 -0.56556349993 -0.13349747658 -0.86130595207 -4.6982307434 0.046772018075
          4.0746660233 -11.519864082 0.13044342399 5.3740391731 -13.079649925 -0.12574030459
          -0.0015317832585 -6.1704759598 -0.0049320072867 8.7007894516 -14.996272087 -0.34827411175
          16.169126511 -15.907644272 0.61383998394 0 0 0
          -1.1630423069 -2.1631281376 0.22765140235 8.6939954758 -15.019515991 -0.15536214411