<?xml version="1.0"?>
<VTKFile type="UnstructuredGrid" version="0.1" byte_order="LittleEndian" header_type="UInt32" compressor="vtkZLibDataCompressor">
  <UnstructuredGrid>
    <Piece NumberOfPoints="6405" NumberOfCells="4800">
      <PointData>
        <DataArray type="Float32" Name="DISPLACEMENT" NumberOfComponents="3" ComponentName0="X-DISPLACEMENT" ComponentName1="Y-DISPLACEMENT" ComponentName2="Z-DISPLACEMENT" format="ascii" RangeMin="0" RangeMax="394.11645661">
          0 0 0 0 0 0
          2.600020647 -1.4092111588 -1.2227438688 0 0 0
          1.5540597439 -0.74228435755 -0.84308296442 0 0 0
          2.3786611557 -1.6378699541 -0.48706424236 1.3480559587 -0.94521605968 -0.34283328056
          0 0 0 4.7953329086 -2.8835556507 -1.2954422235
          0 0 0 4.7218108177 -3.1700615883 -0.65960901976
          3.1355419159 -2.3489093781 -0.94744354486 0 0 0
          0 0 0 2.3949651718 -1.7077336311 5.4248619819e-08
          0.85523557663 -0.45968490839 -0.49616929889 1.3411898613 -0.98439365625 3.2120325955e-08
          3.0595350266 -2.5939588547 -0.4815633297 0.73048138618 -0.65273493528 -0.20072680712
          4.6745581627 -3.2505640984 1.2539284455e-07 1.7321255207 -1.9789472818 -0.58500772715
          0 0 0 3.0173642635 -2.6695301533 7.8958464655e-08
          1.660883069 -2.2081198692 -0.2990514338 0 0 0
          6.8356695175 -5.0428347588 -1.2421799898 0 0 0
          0.7250559926 -0.68651866913 2.4581621183e-09 0 0 0
          0 0 0 2.3786611557 -1.6378698349 0.48706436157
          4.6353430748 -4.5265698433 -0.92460411787 6.844493866 -5.2828917503 -0.62765002251
          0.11543753743 -0.37217533588 -0.13730153441 1.3480559587 -0.94521605968 0.34283336997
          4.6390008926 -4.7548513412 -0.46931099892 0.028294762596 -0.57282710075 -0.06802496314
          1.6282209158 -2.2739913464 2.6495778016e-08 4.7218108177 -3.1700615883 0.65960925817
          0 0 0 0 0 0
          0.30506035686 -1.842595458 -0.24620138109 2.6655898094 -4.1808629036 -0.61490404606
          6.8256177902 -5.363240242 2.1614211221e-07 3.059535265 -2.5939588547 0.48156347871
          2.6396710873 -4.3951387405 -0.31165730953 0.73048138618 -0.65273487568 0.20072682202
          4.6252822876 -4.8271541595 1.4273638271e-07 0.2340388149 -2.059640646 -0.13134291768
          0.009561768733 -0.61369752884 -2.568800106e-08 0 0 0
          8.7480306625 -7.6957917213 -1.1311948299 0 0 0
          6.0827698708 -7.215886116 -0.87029373646 1.6608831882 -2.2081198692 0.29905149341
          8.7850933075 -7.8917179108 -0.56913805008 2.600020647 -1.4092110395 1.222743988
          0 0 0 0 0 0
          0.20933800936 -2.126568079 -3.2587308851e-08 2.6244149208 -4.4611005783 6.3657111582e-08
          -0.50290447474 -0.54425543547 0.17086151242 6.1115708351 -7.4068508148 -0.43772277236
          1.5540598631 -0.74228429794 0.84308302402 0.66209000349 -4.0106372833 -0.32269737124
          0 0 0 6.844493866 -5.2828917503 0.62765043974
          -0.59932011366 -0.75330394506 0.058979991823 0.61815959215 -4.2079200745 -0.16530659795
          4.6390008926 -4.7548513412 0.46931126714 0.028294768184 -0.57282698154 0.068024918437
          3.6286318302 -6.8801898956 -0.61481660604 -0.90572440624 -1.9679876566 0.031930319965
          8.7809896469 -7.9562926292 3.1928539102e-07 4.7953329086 -2.8835554123 1.295442462
          0 0 0 0 0 0
          3.6235625744 -7.0606398582 -0.30855149031 3.1355421543 -2.3489091396 0.94744366407
          6.1135220528 -7.4689459801 2.1839359476e-07 -0.99350267649 -2.1531932354 0.014794316143
          0.85523563623 -0.45968478918 0.49616932869 -0.69448435307 -0.8236887455 -7.6989842057e-08
          0.60419714451 -4.2690086365 -1.5456006253e-08 2.6396710873 -4.3951382637 0.31165745854
          0.23403887451 -2.059640646 0.13134285808 3.6190781593 -7.1181712151 1.1648106124e-07
          1.7321256399 -1.9789470434 0.58500778675 -1.0224514008 -2.21301651 -8.946934571e-08
          1.1599910259 -6.6956310272 -0.3776743412 8.7850933075 -7.8917174339 0.56913870573
          6.8356695175 -5.0428342819 1.2421803474 0 0 0
          10.512601852 -10.753552437 -1.0276558399 0 0 0
          0 0 0 -1.0733920336 -4.0770010948 -0.08645413816
          1.1305197477 -6.8577971458 -0.1886908561 10.552932739 -10.90941906 -0.51425540447
          7.4650206566 -10.304792404 -0.81763446331 6.1115708351 -7.4068508148 0.43772318959
          -0.96022707224 -0.88669413328 0.43828719854 0 0 0
          4.6353430748 -4.5265698433 0.92460441589 0.11543757468 -0.37217521667 0.13730150461
          -1.1487451792 -4.2311077118 -0.040172420442 -0.59932005405 -0.75330388546 -0.058980125934
          -1.0520243645 -1.0716379881 0.17638708651 0.61815971136 -4.2079200745 0.16530656815
          7.49725914 -10.459169388 -0.40864822268 3.6235625744 -7.0606398582 0.30855172873
          1.1227389574 -6.9101166725 1.81873272e-08 10.555071831 -10.960960388 4.2726745164e-07
          -1.7880394459 -2.3504869938 0.22693505883 -0.99350261688 -2.1531932354 -0.014794486575
          0 0 0 4.6082863808 -9.9782428741 -0.61104887724
          0.30506044626 -1.8425952196 0.24620135128 2.6655900478 -4.1808624268 0.61490422487
          -1.1676117182 -4.2845058441 -8.4386030608e-08 7.5040516853 -10.509162903 2.9833478266e-07
          -1.1780899763 -1.1444607973 -1.3348210359e-07 -1.9469521046 -2.4777889252 0.119071275
          4.6092562675 -10.123389244 -0.30435737967 8.7480306625 -7.6957912445 1.131195426
          0 0 0 -1.0458669662 -6.7221097946 -0.19557033479
          6.0827698708 -7.2158856392 0.87029415369 -2.0078530312 -2.5234212875 -1.6049155249e-07
          -1.1145529747 -6.8343062401 -0.09455575794 4.6092600822 -10.169845581 1.7128499508e-07
          -0.50290447474 -0.54425531626 -0.17086161673 1.1305198669 -6.8577971458 0.1886909008
          1.7497270107 -9.7817201614 -0.42176431417 10.552932739 -10.90941906 0.51425623894
          -2.3773887157 -4.4406204224 0.0066789905541 0.66209024191 -4.0106368065 0.32269737124
          0 0 0 -1.1487451792 -4.2311077118 0.040172249079
          1.7261155844 -9.9075021744 -0.20968189836 -1.0520242453 -1.0716379881 -0.17638731003
          -2.5316004753 -4.4960622787 0.016551891342 7.49725914 -10.459169388 0.40864881873
          3.6286318302 -6.8801894188 0.61481684446 -0.90572434664 -1.9679875374 -0.031930468976
          12.134943962 -14.130013466 -0.93920511007 0 0 0
          -1.1315838099 -6.8776054382 -8.5663586447e-08 8.7792367935 -13.711066246 -0.77252548933
          12.171110153 -14.25316143 -0.46891412139 0 0 0
          -1.1656289101 -1.2261260748 0.60042279959 8.8082275391 -13.833267212 -0.38499987125
          1.720864892 -9.9488019943 4.5096317791e-08 -1.245516181 -1.4080678225 0.24700567126
          -1.9469518661 -2.4777889252 -0.11907157302 -2.5791022778 -4.5247097015 -1.7803066044e-07
          4.6092567444 -10.12338829 0.3043577075 5.5922527313 -13.394195557 -0.60781812668
          -2.0638198853 -2.8671159744 0.25867065787 12.174693108 -14.29360199 5.3233878816e-07
          0 0 0 -2.2690472603 -2.9665937424 0.14409758151
          5.5941729546 -13.507364273 -0.30193796754 8.8155021667 -13.872520447 3.7653208551e-07
          -1.3726167679 -1.5079374313 -1.4167179074e-07 1.1599911451 -6.6956305504 0.3776743412
          -0.86376053095 -9.7818861008 -0.29744407535 10.512601852 -10.753551483 1.0276567936
          0 0 0 -2.7023701668 -7.0793652534 -0.2162322849
          -1.1145530939 -6.8343057632 0.094555579126 -1.0733920336 -4.0770010948 0.086453974247
          7.4650206566 -10.304792404 0.81763505936 -0.96022695303 -0.88669407368 -0.43828734756
          -2.8432347775 -7.0732870102 -0.08940859139 -0.92401182652 -9.852186203 -0.14637672901
          1.7261157036 -9.9075021744 0.20968197286 -2.5316002369 -4.4960622787 -0.01655222103
          5.5952382088 -13.543169022 2.2296842417e-07 -2.3131828308 -3.0279772282 -2.4035594492e-07
          2.4082248211 -13.19052124 -0.461479038 -2.4856193066 -5.1443786621 -0.15773543715
          -1.7880392075 -2.3504867554 -0.22693528235 12.171110153 -14.25316143 0.46891519427
          4.6082863808 -9.9782419205 0.61104917526 0 0 0
          -0.93740016222 -9.886464119 -9.3314774574e-08 -2.878745079 -7.096809864 -2.1189224242e-07
          2.3888249397 -13.282866478 -0.22938175499 8.8082275391 -13.833266258 0.38500061631
          -2.7455904484 -5.0841412544 -0.043476954103 -1.2455164194 -1.4080679417 -0.24700593948
          -1.0458670855 -6.7221093178 0.19557012618 2.3856670856 -13.313919067 7.0274744246e-08
          5.5941729546 -13.507364273 0.30193841457 -2.2690472603 -2.9665937424 -0.14409801364
          -2.7938129902 -5.074195385 -2.7202014508e-07 13.629515648 -17.758155823 -0.8650790453
          0 0 0 13.660288811 -17.854206085 -0.43154850602
          1.7497272491 -9.7817192078 0.42176440358 10.028905869 -17.365932465 -0.73456543684
          -2.3773882389 -4.4406204224 -0.0066792410798 -2.7945587635 -10.170637131 -0.44290560484
          -1.6606059074 -1.61404562 0.86015951633 -2.843234539 -7.0732870102 0.089408203959
          -0.92401188612 -9.852186203 0.1463765353 0 0 0
          10.053606033 -17.460996628 -0.36568331718 -2.915656805 -10.098122597 -0.19733695686
          -2.009390831 -1.853315115 0.29926404357 -0.5435500741 -13.171349525 -0.39101654291
          -2.5438899994 -8.0081510544 -0.58646380901 12.134943962 -14.130012512 0.93920618296
          0 0 0 8.7792367935 -13.711066246 0.77252620459
          13.663783073 -17.885560989 6.3054528709e-07 -2.8182125092 -7.8359622955 -0.26626685262
          -0.59223014116 -13.203093529 -0.19297711551 -1.1656292677 -1.2261260748 -0.60042303801
          6.5738916397 -17.059171677 -0.60534393787 -3.1709299088 -3.3082528114 0.36557903886
          0 0 0 2.3888249397 -13.282865524 0.2293818891
          -2.74559021 -5.0841412544 0.043476462364 10.060077667 -17.491098404 4.4824864176e-07
          -2.9394197464 -10.118104935 -2.3500888346e-07 6.5759439468 -17.144762039 -0.30051627755
          -3.484670639 -3.3979566097 0.14829176664 -2.5077605247 -1.968075633 -1.8503381227e-07
          5.5922527313 -13.394194603 0.60781860352 -2.0638201237 -2.8671159744 -0.2586709559
          -0.60051780939 -13.228507996 -9.4606122047e-08 -2.8744676113 -7.8098778725 -2.9315302186e-07
          -0.86376059055 -9.7818851471 0.29744386673 6.5772323608 -17.171247482 2.6905607342e-07
          -3.582018137 -3.4215297699 -2.9000503332e-07 -2.7023696899 -7.0793647766 0.21623204648
          13.660288811 -17.854206085 0.43154975772 3.1235969067 -16.850141525 -0.49604016542
          0 0 0 -3.8870997429 -5.5797510147 -0.21202467382
          3.1084487438 -16.913627625 -0.24672350287 10.053606033 -17.460996628 0.36568421125
          -2.0093915462 -1.8533152342 -0.2992644012 -2.9156565666 -10.098122597 0.19733653963
          -4.1694812775 -5.4896659851 -0.11994322389 2.4082248211 -13.19052124 0.46147915721
          -2.6871953011 -13.582403183 -0.64335417747 -0.59223020077 -13.203093529 0.1929769218
          -2.4856190681 -5.1443786621 0.15773506463 -2.8182122707 -7.8359622955 0.26626631618
          -2.4045798779 -11.388447762 -1.0336122513 -2.7790429592 -13.456536293 -0.29420265555
          3.1068387032 -16.93547821 9.1388386636e-08 6.5759439468 -17.144762039 0.30051678419
          -3.484670639 -3.3979566097 -0.14829228818 -2.6140825748 -11.145464897 -0.49631720781
          -4.1954274178 -5.4542775154 -2.942448134e-07 15.014000893 -21.58092308 -0.80344235897
          0 0 0 -1.382132411 -2.0123353004 0.78984850645
          -2.7933013439 -13.473492622 -2.5491814881e-07 -0.096289247274 -16.812559128 -0.47100836039
          11.22133255 -21.211639404 -0.70271021128 13.629516602 -17.758155823 0.86508029699
          0 0 0 0 0 0
          -2.648938179 -11.125333786 -3.048899373e-07 -3.9302246571 -8.5571918488 -0.87294185162
          15.03964138 -21.654756546 -0.40073034167 -0.13301879168 -16.812326431 -0.23226666451
          11.242049217 -21.284355164 -0.34968715906 10.028906822 -17.365932465 0.73456633091
          -1.4593709707 -2.2264239788 0.25243866444 -2.7945582867 -10.170637131 0.44290536642
          -1.6606065035 -1.6140458584 -0.86015981436 -4.234518528 -8.3450574875 -0.44708454609
          3.1084489822 -16.913625717 0.24672368169 -4.1694812775 -5.4896659851 0.1199426949
          7.5510601997 -20.913702011 -0.60290336609 -0.54355013371 -13.171348572 0.3910163343
          -2.543889761 -8.0081510544 0.58646345139 0 0 0
          -2.2426228523 -4.2549004555 -0.35276198387 15.042758942 -21.678697586 7.1753339626e-07
          -1.8662382364 -2.575688839 -1.5941961351e-07 -0.13734282553 -16.829193115 -9.7036249258e-08
          7.5535645485 -20.97662735 -0.29936385155 6.5738921165 -17.059169769 0.60534441471
          11.247580528 -21.306951523 5.1136601087e-07 -3.1709301472 -3.308252573 -0.36557939649
          -4.2758388519 -8.2938261032 -2.7194093377e-07 -2.6721184254 -4.2099962234 -0.15918001533
          -2.7790424824 -13.456536293 0.29420220852 -2.614082098 -11.145464897 0.49631667137
          -2.1148149967 -14.952062607 -1.3663389683 7.5550374985 -20.995529175 3.0835056464e-07
          -2.7465181351 -4.295943737 -1.3913188468e-07 -2.2109911442 -14.720728874 -0.66757595539
          3.8872005939 -20.699239731 -0.52431344986 0 0 0
          -2.0794241428 -7.6966328621 -1.5318871737 15.03964138 -21.654754639 0.40073177218
          -1.4593708515 -2.2264242172 -0.25243893266 -0.13301885128 -16.812324524 0.23226647079
          3.8765060902 -20.73969841 -0.26109242439 3.1235969067 -16.850141525 0.49604031444
          11.242049217 -21.284355164 0.34968817234 -2.3804578781 -17.209774017 -0.79659664631
          -3.3496859074 -12.185720444 -1.5057018995 -3.8870995045 -5.5797510147 0.21202430129
          -2.2571377754 -7.3153982162 -0.67673307657 -4.2345180511 -8.3450574875 0.44708406925
          -2.4431767464 -17.04813385 -0.36908200383 -3.5531487465 -11.95214653 -0.74191451073
          -2.2209320068 -14.716609955 -3.0022113151e-07 -2.6871948242 -13.582403183 0.64335393906
          7.5535645485 -20.97662735 0.2993644774 -2.404579401 -11.388447762 1.0336120129
          3.8760933876 -20.754331589 1.0743885781e-07 -2.672118187 -4.2099967003 0.15917992592
          -2.3268880844 -7.1758937836 3.422648831e-08 -2.4541003704 -17.056230545 -2.6934932862e-07
          -3.5896668434 -11.899421692 -2.3818746797e-07 -1.7185828686 -10.858346939 -1.6600413322
          0.46269956231 -20.642583847 -0.53607302904 15.014000893 -21.58092308 0.80344378948
          0 0 0 -2.2109909058 -14.720728874 0.66757541895
          -1.3821321726 -2.0123353004 -0.78984868526 -1.619374156 -10.830625534 -0.77493429184
          -0.096289336681 -16.81255722 0.47100818157 11.22133255 -21.211639404 0.70271122456
          0.43714666367 -20.619724274 -0.26436755061 16.306789398 -25.550758362 -0.75334519148
          0 0 0 -3.9302239418 -8.5571918488 0.8729416728
          16.327716827 -25.606973648 -0.37575796247 -1.2862679958 -3.1674823761 0.084676772356
          12.365211487 -25.200235367 -0.67627447844 3.8765060902 -20.73969841 0.26109263301
          0 0 0 -2.2571372986 -7.3153986931 0.67673319578
          12.382363319 -25.255285263 -0.33650311828 -1.7350356579 -3.1677742004 0.13819389045
          -2.4431762695 -17.04813385 0.3690815568 -3.5531480312 -11.952147484 0.74191409349
          7.5510606766 -20.913702011 0.60290396214 -1.5945367813 -10.798946381 1.4729239695e-07
          0.43543124199 -20.630590439 -1.0105907933e-07 -2.2426223755 -4.2549009323 0.3527623415
          -1.6776938438 -18.51508522 -1.4949526787 -2.1804525852 -5.8722043037 -1.1734240055
          8.5234804153 -24.909042358 -0.59992611408 -2.3110129833 -15.855294228 -1.7488123178
          16.330530167 -25.625074387 7.9265481645e-07 0 0 0
          -1.6693592072 -18.352018356 -0.73642975092 12.38706398 -25.272008896 5.6398357628e-07
          -1.7509540319 -3.3217744827 2.2636311314e-07 8.5267829895 -24.954370499 -0.29806560278
          -2.4069955349 -5.6344132423 -0.57381623983 -2.3438000679 -15.781488419 -0.86030745506
          -2.1148145199 -14.952062607 1.3663386106 -1.658023119 -18.359836578 -2.9385810763e-07
          -1.3936988115 -13.920701027 -1.474170208 -1.619374156 -10.830625534 0.77493453026
          -1.865496397 -20.994586945 -0.89560610056 8.5285129547 -24.967529297 3.3855462789e-07
          3.8872005939 -20.699237823 0.52431362867 0.43714660406 -20.619724274 0.2643673718
          -2.3599579334 -15.753012657 -1.9120754757e-07 -2.521009922 -5.5371084213 4.181843849e-07
          -2.079423666 -7.6966338158 1.5318872929 16.327716827 -25.606973648 0.37575954199
          4.6906585693 -24.688222885 -0.54533749819 -1.2219634056 -14.128441811 -0.7318970561
          -2.3751604557 -8.8183078766 -1.3263766766 -1.8975268602 -20.830247879 -0.42106586695
          -2.3804571629 -17.209774017 0.79659646749 -3.3496847153 -12.185721397 1.5057017803
          0 0 0 -2.3451895714 -8.7579593658 -0.74436360598
          12.382363319 -25.255283356 0.33650425076 -1.7350358963 -3.1677742004 -0.13819347322
          4.684481144 -24.711828232 -0.27193686366 -1.1601948738 -14.169658661 1.6241756384e-07
          -1.9028613567 -20.838445663 -2.819189433e-07 -1.6693588495 -18.352018356 0.73642921448
          4.6850161552 -24.721324921 1.1647136944e-07 -2.4020843506 -8.5895471573 5.1194865591e-07
          8.5267829895 -24.954370499 0.29806625843 -2.4069957733 -5.6344137192 0.57381701469
          -2.3437993526 -15.781489372 0.86030709743 -1.7185828686 -10.858346939 1.6600414515
          0.4626994729 -20.64258194 0.53607285023 1.1158256531 -24.610593796 -0.5837366581
          16.306789398 -25.550758362 0.7533467412 0 0 0
          -2.2351837158 -11.758513451 -1.094814539 -1.2862682343 -3.1674826145 -0.084676370025
          12.365211487 -25.200233459 0.67627555132 -1.2219635248 -14.128441811 0.73189735413
          -1.8975263834 -20.830247879 0.42106541991 1.1007541418 -24.573806763 -0.28807601333
          -1.0724387169 -19.389755249 -1.6283746958 -2.1656591892 -11.971179008 -0.61238133907
          -2.3451900482 -8.7579603195 0.74436455965 4.6844816208 -24.711828232 0.27193707228
          -0.98086750507 -19.493349075 -0.80256289244 -1.1325422525 -22.026771545 -1.4552372694
          -1.0216338634 -16.980617523 -1.2152141333 17.52614975 -29.629859924 -0.7142546773
          0 0 0 13.46927166 -29.294008255 -0.65480983257
          -1.6776934862 -18.51508522 1.4949523211 -2.1804530621 -5.8722047806 1.1734247208
          8.5234804153 -24.909040451 0.59992676973 -0.88097190857 -17.253709793 -0.6322517395
          -1.0627676249 -21.944236755 -0.71738046408 -2.3110117912 -15.855295181 1.7488120794
          17.542734146 -29.672998428 -0.35630270839 0 0 0
          -2.1947586536 -11.912356377 4.7840785555e-07 1.1008168459 -24.580823898 -1.0983482923e-07
          0.085779160261 -3.8400876522 -0.050221845508 13.483201027 -29.335998535 -0.32586306334
          0.087914951146 -3.8663094044 -0.022219780833 -0.97283828259 -19.493249893 -1.690105762e-07
          9.4910840988 -29.00753212 -0.59601575136 -0.84427756071 -17.289545059 1.1380140563e-07
          -1.0340127945 -21.963890076 -3.2098722613e-07 17.54535675 -29.686786652 8.5225815383e-07
          0 0 0 0.13661387563 -6.8177709579 -0.023868359625
          9.4953804016 -29.040239334 -0.29636779428 13.487185478 -29.348453522 6.0265205093e-07
          -1.3936989307 -13.920701981 1.4741703272 -1.8654955626 -20.994586945 0.89560592175
          0.090406604111 -3.905857563 7.7084132499e-07 0.13995531201 -7.0906009674 -0.012180157937
          4.6906585693 -24.688220978 0.54533773661 -2.375161171 -8.8183078766 1.326377511
          -2.0128335953 -14.654197693 -0.85555046797 -1.1748729944 -24.899394989 -0.94567418098
          -2.1656594276 -11.971179962 0.61238229275 1.1007541418 -24.573806763 0.28807580471
          -1.9307076931 -14.992494583 -0.46090477705 -1.1782432795 -24.749427795 -0.4497629106
          -0.98086673021 -19.493349075 0.8025624752 9.4973936081 -29.049427032 3.565648683e-07
          0.13989529014 -7.0060873032 1.174180511e-06 5.5254573822 -28.779632568 -0.55866259336
          -0.88097208738 -17.253709793 0.63225191832 -1.0627672672 -21.944236755 0.71737986803
          17.542734146 -29.672998428 0.35630440712 0 0 0
          0.15617397428 -9.7539072037 -0.016063855961 5.5236291885 -28.792261124 -0.27892804146
          13.483201027 -29.335996628 0.32586428523 0.15664038062 -10.180221558 -0.0081285992637
          -1.9385470152 -15.023921967 4.0375044819e-07 -1.1762377024 -24.757850647 -2.9597390494e-07
          0.087914548814 -3.8663094044 0.022221175954 9.4953804016 -29.040239334 0.29636850953
          5.5249400139 -28.798513412 1.1502893216e-07 0.15623156726 -10.149325371 1.1341272739e-06
          1.1158255339 -24.610591888 0.58373647928 0.12868662179 -22.834703445 -1.3536248207
          0.13995447755 -7.0906004906 0.012182433158 -2.2351844311 -11.758514404 1.0948153734
          -0.62590789795 -20.066093445 -0.96912705898 0.26964429021 -23.035589218 -0.66386443377
          -1.0724377632 -19.389755249 1.6283742189 -0.50776028633 -20.353816986 -0.51680189371
          -1.9307081699 -14.992494583 0.46090555191 -1.1782425642 -24.749427795 0.44976240396
          -1.1325418949 -22.026771545 1.4552367926 -1.0216342211 -16.980617523 1.2152142525
          0.16632352769 -12.548488617 -0.014196842909 1.8451515436 -28.679512024 -0.61381781101
          17.52614975 -29.629859924 0.71425634623 0 0 0
          13.46927166 -29.294008255 0.65481102467 0.16533282399 -12.98089695 -0.0068463659845
          0.28936460614 -23.056390762 -1.8073298236e-07 -1.7935074568 -17.531593323 -0.66701978445
          -0.4387293756 -25.665075302 -1.353731513 1.8399887085 -28.636554718 -0.30309811234
          0.085778899491 -3.8400878906 0.05022276938 -0.48617523909 -20.398597717 1.8298015547e-08
          5.5236291885 -28.792259216 0.27892827988 0.15663948655 -10.180221558 0.0081308381632
          -0.34495696425 -25.645849228 -0.65702146292 -1.7103881836 -17.877849579 -0.34871515632
          9.4910840988 -29.00753212 0.59601640701 0.16448737681 -12.962995529 9.5966572644e-07
          1.8416560888 -28.641569138 -1.2626516366e-07 0.13661268353 -6.8177714348 0.023870317265
          -0.31397855282 -25.661239624 -3.5050442193e-07 18.689674377 -33.790367126 -0.68565875292
          0 0 0 -1.705878973 -17.944925308 2.6723847668e-07
          18.70227623 -33.82490921 -0.34208661318 0 0 0
          0.26964479685 -23.035589218 0.66386401653 14.5415411 -33.465473175 -0.63788348436
          -2.012834549 -14.654197693 0.85555118322 -1.1748720407 -24.899394989 0.94567388296
          1.4337922335 -3.1618435383 -0.18342101574 -0.50776046515 -20.353816986 0.51680189371
          14.552584648 -33.498897552 -0.31751826406 1.8799748421 -3.1834411621 -0.18091759086
          5.5254573822 -28.779630661 0.55866277218 18.704801559 -33.83588028 8.9568732164e-07
          0.16533194482 -12.98089695 0.0068482663482 10.453070641 -33.182518005 -0.5908356905
          2.424431324 -5.8790884018 1.1192308664 1.8399887085 -28.636554718 0.30309784412
          0 0 0 -0.35639074445 -28.893690109 -0.95406019688
          0.17402866483 -15.268670082 -0.014709428884 0.15617245436 -9.7539072037 0.016065955162
          2.6635358334 -5.6389155388 0.54732054472 10.458491325 -33.207271576 -0.29406318069
          14.555939674 -33.508621216 6.2625366581e-07 -0.34495642781 -25.645849228 0.65702074766
          0.17280906439 -15.708749771 -0.0068063191138 -0.33561718464 -28.770311356 -0.45551869273
          -1.7103886604 -17.877849579 0.34871569276 1.893296957 -3.3421823978 7.3697009384e-07
          -0.2343223244 -23.261903763 -0.74948137999 10.460776329 -33.214115143 3.608209056e-07
          0.12868721783 -22.834703445 1.3536242247 2.7781453133 -5.5410804749 1.2626858279e-06
          0.17215672135 -15.761126518 7.6749279287e-07 -0.12628753483 -23.533979416 -0.40168690681
          -0.32825398445 -28.778448105 -3.1448089999e-07 -0.62590837479 -20.066093445 0.96912693977
          18.70227623 -33.82490921 0.34208840132 6.3827280998 -32.947834015 -0.56441867352
          -1.5772680044 -20.472290039 -0.51990437508 0 0 0
          2.6559233665 -8.8256978989 1.2950148582 1.1503098011 -26.361808777 -1.0337512493
          2.6278762817 -8.7678642273 0.72506809235 6.3848414421 -32.954685211 -0.28206837177
          14.552584648 -33.498897552 0.31751951575 -1.5043386221 -20.783342361 -0.26383948326
          1.292216301 -26.58704567 -0.51168173552 1.8799744844 -3.1834409237 0.18091897666
          0.16632197797 -12.548488617 0.0141986534 1.8451514244 -28.679512024 0.61381757259
          -0.11040204763 -23.588819504 -1.0682227725e-07 -1.7935082912 -17.531593323 0.66702026129
          -0.43872871995 -25.665075302 1.353730917 6.3867483139 -32.959335327 1.0081470236e-07
          10.458491325 -33.207271576 0.29406389594 -1.5018255711 -20.860952377 1.1348539175e-07
          2.6635353565 -5.638915062 -0.54731810093 2.6840910912 -8.6047039032 1.2524391195e-06
          0.17280820012 -15.708749771 0.0068078245968 -0.33561649919 -28.770309448 0.45551812649
          1.3138773441 -26.619947433 -2.5923273483e-07 0.41062229872 -29.434391022 -1.1980512142
          0.18052645028 -18.001249313 -0.016308704391 0.51121211052 -29.469228745 -0.57692658901
          0.17919769883 -18.38401413 -0.0074845100753 18.689674377 -33.790367126 0.68566048145
          0 0 0 -0.12628777325 -23.533979416 0.4016866684
          2.5383694172 -11.774013519 1.0696752071 2.6347119808 -32.823219299 -0.62731981277
          2.4680263996 -11.986092567 0.59827423096 14.5415411 -33.465473175 0.63788473606
          1.433791995 -3.1618430614 0.18342219293 2.6381649971 -32.781013489 -0.30985343456
          6.3848409653 -32.954685211 0.28206858039 -1.5043390989 -20.783342361 0.26383969188
          2.6278755665 -8.7678642273 -0.72506558895 1.292216301 -26.58704567 0.51168113947
          0.53410249949 -29.47559166 -3.8655048229e-07 0.17863458395 -18.451328278 5.4029754892e-07
          10.453070641 -33.182518005 0.59083634615 2.4244306087 -5.8790874481 -1.1192287207
          -0.35638982058 -28.893690109 0.95405977964 2.4956519604 -11.928955078 1.097720201e-06
          0.17402713001 -15.268670082 0.014710813761 2.6413519382 -32.785434723 -1.544220396e-07
          19.814149857 -38.014080048 -0.66697531939 0 0 0
          -0.23432283103 -23.261903763 0.74948096275 0.51121264696 -29.469228745 0.57692581415
          0 0 0 15.589031219 -37.696891785 -0.6249050498
          -1.3707321882 -23.551034927 -0.39196324348 0.17919678986 -18.38401413 0.0074855573475
          1.4271343946 -2.0283739567 -0.82376754284 0.12563207746 -26.6052742 -0.5526265502
          19.823129654 -38.044399261 -0.33274245262 6.3827280998 -32.947834015 0.56441891193
          15.597535133 -37.726074219 -0.31112593412 1.5012053251 -2.2521283627 -0.26787930727
          -1.5772689581 -20.472290039 0.51990449429 -1.3068082333 -23.817083359 -0.19427789748
          2.6559221745 -8.8256969452 -1.2950125933 0.56562453508 -32.937492371 -0.91894507408
          2.4680254459 -11.986092567 -0.59827208519 1.1503098011 -26.361808777 1.0337505341
          2.3311870098 -14.677305222 0.83145934343 2.6381649971 -32.781013489 0.30985310674
          0.22146673501 -26.84021759 -0.2965041995 2.2475721836 -15.014349937 0.448135674
          0.60294550657 -32.849956512 -0.44077467918 11.407040596 -37.417327881 -0.58392494917
          19.825582504 -38.053951263 9.2190060741e-07 2.3703916073 -4.2676815987 0.2815913558
          0 0 0 11.413747787 -37.438434601 -0.2908218503
          2.8085076809 -4.2291607857 0.12890382111 15.600296974 -37.734477997 6.3334272227e-07
          1.9121927023 -29.929683685 -0.75965100527 -1.3042931557 -23.897476196 -8.8755065519e-08
          0.23562161624 -26.899097443 -2.810629951e-07 0.18638238311 -20.831577301 -0.018295817077
          1.9262701273 -2.6068382263 3.6243324075e-07 2.0247161388 -30.130989075 -0.38391876221
          0.61231529713 -32.857372284 -3.470668446e-07 0.18511499465 -21.163980484 -0.0084531605244
          2.2543671131 -15.045717239 8.7764959744e-07 0.41062298417 -29.434391022 1.1980503798
          11.416220665 -37.444381714 3.4876330801e-07 0.18052481115 -18.001249313 0.0163096264
          2.8910961151 -4.3104395866 7.5385850096e-07 7.2524852753 -37.178607941 -0.56285792589
          19.823129654 -38.044399261 0.33274427056 2.0415537357 -30.161422729 -3.9195163026e-07
          2.3021655083 -7.6974406242 1.4833667278 2.5383679867 -11.774013519 -1.0696731806
          0.18466490507 -21.248247147 2.7301530281e-07 2.6347117424 -32.823219299 0.62731951475
          0 0 0 7.2581019402 -37.183891296 -0.28147959709
          2.4793391228 -7.328728199 0.65435159206 15.597535133 -37.726074219 0.31112718582
          -1.3068087101 -23.817083359 0.19427770376 0.22146645188 -26.84021759 0.29650360346
          1.5012052059 -2.2521281242 0.26787993312 0.60294622183 -32.849956512 0.44077402353
          2.2475712299 -15.014349937 -0.44813394547 11.413747787 -37.438434601 0.29082253575
          7.260371685 -37.188354492 7.1421162318e-08 1.3006460667 -33.23431015 -1.0039983988
          2.1236264706 -17.560987473 0.64125978947 2.5429058075 -7.1993966103 9.540898418e-07
          2.8085074425 -4.2291603088 -0.12890233099 2.0387823582 -17.906784058 0.33540269732
          2.0247161388 -30.130989075 0.38391792774 1.3961670399 -33.308830261 -0.4875254631
          0.18511405587 -21.163980484 0.0084536718205 3.47296381 -37.029071808 -0.62828242779
          19.814149857 -38.014080048 0.66697716713 0 0 0
          1.9775795937 -10.87863636 1.6265345812 3.4830892086 -36.992420197 -0.30972915888
          15.589031219 -37.69688797 0.62490624189 1.8803544044 -10.851293564 0.7581346035
          -1.3707331419 -23.551034927 0.39196297526 1.4114443064 -33.313301086 -4.5008837901e-07