<?xml version="1.0"?>
<VTKFile type="UnstructuredGrid" version="0.1" byte_order="LittleEndian" header_type="UInt32" compressor="vtkZLibDataCompressor">
  <UnstructuredGrid>
    <Piece NumberOfPoints="6405" NumberOfCells="4800">
      <PointData>
        <DataArray type="Float32" Name="DISPLACEMENT" NumberOfComponents="3" ComponentName0="X-DISPLACEMENT" ComponentName1="Y-DISPLACEMENT" ComponentName2="Z-DISPLACEMENT" format="ascii" RangeMin="0" RangeMax="232.60902322">
          0 0 0 0 0 0
          2.0823945999 -1.2138177156 -1.0072178841 0 0 0
          1.5550708771 -0.67580401897 -0.89492297173 0 0 0
          1.8869884014 -1.3136601448 -0.41465047002 1.360527873 -0.76586252451 -0.3616669476
          0 0 0 3.7613794804 -1.8368858099 -1.0567985773
          0 0 0 3.7044606209 -1.9813811779 -0.55402469635
          3.1850206852 -1.3184051514 -0.92300534248 0 0 0
          0 0 0 1.8920224905 -1.3668889999 -7.5334220639e-08
          1.8610780239 -0.31700897217 -0.80265676975 1.3587949276 -0.79873579741 2.6053696089e-08
          3.1327774525 -1.4445309639 -0.47576022148 1.7526490688 -0.4463211 -0.31540408731
          3.6629464626 -2.0269539356 -1.1196701166e-07 3.0364170074 -0.79557013512 -0.69002109766
          0 0 0 3.0916335583 -1.4888749123 5.8280367199e-08
          2.9915246964 -0.94879221916 -0.36371842027 0 0 0
          5.3938884735 -2.6933619976 -1.008559227 0 0 0
          1.7370694876 -0.45763218403 1.6817037363e-07 0 0 0
          0 0 0 1.8869885206 -1.313660264 0.41465032101
          4.6378483772 -2.2441697121 -0.8693292141 5.412984848 -2.8072910309 -0.51632994413
          2.8806066513 -0.45205485821 -0.29337179661 1.360527873 -0.76586270332 0.36166700721
          4.654323101 -2.3573262691 -0.44276422262 2.8845551014 -0.68679410219 -0.20685446262
          2.9558258057 -0.98038554192 2.4284929623e-07 3.7044608593 -1.9813814163 0.55402445793
          0 0 0 0 0 0
          2.8736689091 -0.47685182095 -0.34182867408 4.2133841515 -1.887791872 -0.71044230461
          5.4020380974 -2.8514204025 -1.4650512981e-07 3.1327774525 -1.4445313215 0.47576034069
          4.1984934807 -2.0013546944 -0.36314097047 1.7526490688 -0.44632130861 0.31540441513
          4.6463913918 -2.3960673809 7.7576501667e-08 2.8215625286 -0.66389507055 -0.22092214227
          2.8362612724 -0.68616187572 3.8048844431e-07 0 0 0
          6.899766922 -3.7607898712 -0.90466105938 0 0 0
          5.955684185 -3.3758380413 -0.80518835783 2.9915246964 -0.94879257679 0.36371892691
          6.9435095787 -3.845215559 -0.46005663276 2.0823945999 -1.2138180733 1.0072177649
          0 0 0 0 0 0
          2.8189024925 -0.69877910614 4.2279486934e-07 4.1948537827 -2.0391235352 3.0771917636e-07
          1.1842839718 -0.18326503038 -0.74319583178 5.9953508377 -3.4605805874 -0.4065682888
          1.5550708771 -0.67580443621 0.89492303133 3.548725605 -1.5683424473 -0.59955102205
          0 0 0 5.412984848 -2.8072915077 0.51632964611
          1.0128474236 -0.19597806036 -0.23639540374 3.5165438652 -1.6621803045 -0.28925254941
          4.654323101 -2.357326746 0.44276440144 2.884554863 -0.68679434061 0.20685520768
          5.2361593246 -3.1092777252 -0.72124618292 2.5778512955 -0.82526016235 -0.80296814442
          6.9467110634 -3.8771138191 -1.8193036055e-07 3.7613797188 -1.8368865252 1.0567983389
          0 0 0 0 0 0
          5.2568101883 -3.1983072758 -0.36133673787 3.1850209236 -1.3184058666 0.9230055213
          6.0024204254 -3.4942541122 8.7303895668e-08 2.5075528622 -0.85466200113 -0.33372628689
          1.8610780239 -0.3170094192 0.80265712738 1.0244325399 -0.25005370378 -5.0883891163e-06
          3.5293450356 -1.6998716593 5.3658783372e-07 4.1984934807 -2.0013551712 0.36314159632
          2.8215625286 -0.66389536858 0.22092299163 5.2583403587 -3.2344715595 3.6215647015e-07
          3.0364170074 -0.79557085037 0.6900215745 2.4408710003 -0.91119134426 -1.5045676264e-05
          4.8073592186 -2.9407496452 -0.63372856379 6.9435100555 -3.8452160358 0.46005627513
          5.3938889503 -2.6933629513 1.0085588694 0 0 0
          8.2721538544 -4.93445158 -0.81692522764 0 0 0
          0 0 0 3.9391510487 -1.6394919157 -0.82036286592
          4.82710886 -3.0555431843 -0.28328371048 8.3166532516 -5.0003962517 -0.41244590282
          7.1744036674 -4.5662488937 -0.73413074017 5.9953508377 -3.4605810642 0.40656843781
          0.95563614368 -0.075179539621 -0.61838638783 0 0 0
          4.6378488541 -2.2441706657 0.86932939291 2.8806064129 -0.45205542445 0.29337254167
          3.8735847473 -1.6083762646 -0.23957228661 1.012856245 -0.19597792625 0.23638810217
          0.82168984413 -0.12933650613 -0.26036465168 3.5165438652 -1.6621807814 0.28925362229
          7.2171196938 -4.6378788948 -0.36994850636 5.2568101883 -3.1983077526 0.36133745313
          4.8175258636 -3.0855884552 6.7686579541e-07 8.3263492584 -5.0253739357 -2.1837711017e-07
          1.8126214743 -0.58062601089 -0.68033826351 2.5075917244 -0.85465961695 0.33371013403
          0 0 0 6.2890758514 -4.2352728844 -0.64369118214
          2.8736689091 -0.4768525064 0.34182953835 4.2133841515 -1.8877928257 0.71044296026
          3.5030314922 -1.5808078051 -6.3823363234e-06 7.2274308205 -4.6649007797 8.7019046191e-08
          0.815495193 -0.12923263013 -4.7373405323e-06 1.7723352909 -0.64573043585 -0.35372599959
          6.3257141113 -4.3198156357 -0.32267400622 6.8997673988 -3.7607908249 0.90466064215
          0 0 0 4.981569767 -3.0555729866 -0.21972852945
          5.955684185 -3.3758392334 0.80518853664 1.736679554 -0.6717813015 -5.7013648984e-06
          4.9829730988 -3.2464694977 -0.14511317015 6.3329987526 -4.3465414047 4.0156803038e-07
          1.1842968464 -0.18326403201 0.74319517612 4.82710886 -3.0555438995 0.28328505158
          5.675403595 -3.9451112747 -0.48652145267 8.3166532516 -5.0003967285 0.41244548559
          2.6324908733 -1.4998310804 -0.59176939726 3.548725605 -1.568343401 0.59955215454
          0 0 0 3.8736908436 -1.6084115505 0.23953671753
          5.6726799011 -4.0492825508 -0.24895063043 0.82169681787 -0.12933367491 0.26035761833
          2.6662578583 -1.5392842293 -0.32226288319 7.2171196938 -4.6378793716 0.36994868517
          5.2361593246 -3.1092789173 0.72124689817 2.5778968334 -0.82525587082 0.80297482014
          9.5497789383 -6.1894226074 -0.75343316793 0 0 0
          4.9668459892 -3.2580759525 1.0480222272e-06 8.3352880478 -5.8342885971 -0.67728197575
          9.5862464905 -6.2480211258 -0.37847405672 0 0 0
          0.68904817104 -0.045059122145 -0.47797739506 8.3708028793 -5.8984060287 -0.33910092711
          5.6475563049 -4.0530524254 7.3443345627e-07 0.58014255762 -0.11726733297 -0.20063975453
          1.7723485231 -0.64572715759 0.35371506214 2.6891870499 -1.5141046047 -1.4338666006e-06
          6.3257141113 -4.3198161125 0.32267481089 7.3053417206 -5.5238771439 -0.59134030342
          1.2883791924 -0.52682328224 -0.5395180583 9.5966033936 -6.269449234 -2.5906516044e-07
          0 0 0 1.2602077723 -0.61081552505 -0.2802682519
          7.3314499855 -5.5959801674 -0.29529669881 8.3822393417 -5.9215397835 7.3420551416e-08
          0.57997256517 -0.12803307176 -2.1596747501e-06 4.8073592186 -2.9407508373 0.63372993469
          5.0139064789 -3.7075972557 -0.26857745647 8.2721538544 -4.9344530106 0.8169247508
          0 0 0 3.4597835541 -2.7765302658 -0.42901566625
          4.9829730988 -3.2464699745 0.14511525631 3.939281702 -1.6395401955 0.82033836842
          7.1744036674 -4.5662498474 0.73413091898 0.95564430952 -0.075175344944 0.61838394403
          3.4770278931 -2.7922234535 -0.20992745459 4.9632492065 -3.8437247276 -0.1405069828
          5.6726799011 -4.0492835045 0.24895209074 2.6662642956 -1.5393002033 0.32226142287
          7.3369202614 -5.6203684807 4.1375039928e-07 1.2450402975 -0.62719380856 -2.0063462216e-06
          6.427520752 -5.3202052116 -0.49174401164 1.8988739252 -1.3791624308 -0.50027227402
          1.8126380444 -0.58062160015 0.68033081293 9.5862464905 -6.2480220795 0.37847352028
          6.2890763283 -4.2352743149 0.643691957 0 0 0
          4.9376568794 -3.8829538822 1.0687469967e-06 3.4466526508 -2.7954554558 1.797497589e-06
          6.4349889755 -5.3808875084 -0.23597608507 8.3708028793 -5.8984069824 0.33910107613
          1.9250050783 -1.4502118826 -0.25555214286 0.58014416695 -0.11726535857 0.20063607395
          4.981569767 -3.0555744171 0.21973061562 6.4612622261 -5.3926978111 7.7292889955e-07
          7.3314499855 -5.5959806442 0.29529750347 1.2602090836 -0.61081689596 0.28026458621
          1.9161491394 -1.4676750898 7.0110257866e-07 10.757287979 -7.5428514481 -0.70942276716
          0 0 0 10.785510063 -7.5987019539 -0.35512548685
          5.675403595 -3.9451124668 0.48652294278 9.4237642288 -7.211974144 -0.63589662313
          2.6325025558 -1.4998605251 0.59175789356 4.3846316338 -3.8765835762 -0.49896782637
          0.4813515842 -0.059141255915 -0.33923381567 3.4770467281 -2.7922408581 0.20992816985
          4.9632492065 -3.8437254429 0.14050911367 0 0 0
          9.450758934 -7.2710185051 -0.31755462289 4.3632836342 -3.8975152969 -0.14868712425
          0.40166294575 -0.13167323172 -0.14173223078 5.7032017708 -5.2701430321 -0.44576600194
          2.5707666874 -2.4792284966 -0.41925191879 9.5497789383 -6.1894240379 0.75343263149
          0 0 0 8.3352880478 -5.8342900276 0.67728215456
          10.794897079 -7.6183691025 -3.066413683e-07 2.6057116985 -2.5314776897 -0.21437692642
          5.5657720566 -5.2640137672 -0.19956712425 0.68904983997 -0.045056946576 0.4779753089
          8.2285957336 -6.9372372627 -0.55991154909 0.90063416958 -0.51244813204 -0.38873401284
          0 0 0 6.4349884987 -5.3808884621 0.23597761989
          1.9250091314 -1.4502186775 0.25555199385 9.4595775604 -7.2919688225 4.4330182192e-08
          4.2780709267 -3.9940736294 2.7988817237e-06 8.2526340485 -6.9992375374 -0.28068730235
          0.87470877171 -0.60141783953 -0.20194348693 0.40124103427 -0.14394690096 -6.5422466378e-07
          7.3053417206 -5.5238785744 0.59134107828 1.2883807421 -0.52682685852 0.5395154357
          5.3360238075 -5.1533932686 1.1336366015e-06 2.6052207947 -2.55291605 2.5714873573e-06
          5.0139064789 -3.7075986862 0.26857960224 8.2617282867 -7.02105093 4.0400712464e-07
          0.85970377922 -0.62436419725 -1.21349089e-07 3.4598126411 -2.7765545845 0.42901098728
          10.785510063 -7.5987029076 0.3551248908 7.1579360962 -6.7278103828 -0.48808544874
          0 0 0 1.3399549723 -1.2913850546 -0.36840176582
          7.1642041206 -6.8043441772 -0.25003030896 9.450758934 -7.2710189819 0.3175547123
          0.40166303515 -0.1316729933 0.1417311877 4.3632884026 -3.8975167274 0.14869192243
          1.3533097506 -1.3772190809 -0.19166791439 6.427520752 -5.3202066422 0.49174556136
          5.1026334763 -5.3905830383 -0.3205870986 5.5657720566 -5.2640142441 0.19956940413
          1.8988802433 -1.3791741133 0.50027096272 2.6057157516 -2.531485796 0.21438077092
          3.2086377144 -3.6977643967 -0.36177331209 5.2525115013 -5.4356331825 -0.26075911522
          7.1619577408 -6.8442950249 7.8292714534e-07 8.2526340485 -6.9992384911 0.28068810701
          0.87470924854 -0.60141909122 0.20194327831 3.2360870838 -3.7397665977 -0.1875359714
          1.3520722389 -1.40071702 1.1685941672e-06 11.90293026 -9.0012111664 -0.67756462097
          0 0 0 0.30621051788 -0.07743357867 -0.21585857868
          4.7471456528 -5.0789198875 2.0678569399e-06 6.2050328255 -6.5527510643 -0.40608420968
          10.444571495 -8.689496994 -0.60375976562 10.757287979 -7.5428528786 0.70942217112
          0 0 0 0 0 0
          3.2440447807 -3.7606053352 2.8683798519e-06 1.801736474 -2.322239399 -0.32407191396
          11.924535751 -9.0570774078 -0.33897385001 6.2295331955 -6.6752681732 -0.23667639494
          10.466445923 -8.7473058701 -0.30174845457 9.4237642288 -7.2119755745 0.63589668274
          0.25415962934 -0.14607702196 -0.089605398476 4.3846402168 -3.8765859604 0.4989695251
          0.4813516438 -0.059141591191 0.33923336864 1.8302094936 -2.395816803 -0.16662296653
          7.1642041206 -6.8043446541 0.25003188848 1.353310585 -1.3772224188 0.19167010486
          9.0943870544 -8.4313230515 -0.52909499407 5.7032017708 -5.2701444626 0.44576829672
          2.5707740784 -2.479241848 0.41925272346 0 0 0
          0.57350736856 -0.50954371691 -0.249074772 11.932305336 -9.0763568878 -3.6143856619e-07
          0.25311979651 -0.15975770354 7.9602976655e-08 6.2190532684 -6.7493138313 1.2024444231e-06
          9.1152544022 -8.4924020767 -0.26530078053 8.2285957336 -6.9372386932 0.55991238356
          10.473941803 -8.767323494 -8.4053902727e-11 0.90063518286 -0.51245093346 0.38873374462
          1.8365741968 -2.4185972214 2.4503508484e-06 0.55510890484 -0.59679919481 -0.12873870134
          5.2525110245 -5.4356336594 0.26076230407 3.2360920906 -3.7397716045 0.18754096329
          3.8205440044 -5.1205835342 -0.30450636148 9.1208629608 -8.515042305 3.7081915139e-07
          0.54551666975 -0.62138783932 6.0577389149e-07 3.7979581356 -5.1413326263 -0.14349788427
          7.8616256714 -8.2341823578 -0.4522280395 0 0 0
          0.85174065828 -1.2463549376 -0.23962523043 11.924535751 -9.0570774078 0.33897313476
          0.25415971875 -0.14607724547 0.089605599642 6.2295331955 -6.6752691269 0.23667879403
          7.8780231476 -8.2988452911 -0.22785919905 7.1579356194 -6.7278118134 0.48808699846
          10.466445923 -8.7473068237 0.30174845457 5.1258263588 -6.3813023567 -0.20413964987
          2.2615950108 -3.5422399044 -0.28100135922 1.339957118 -1.2913908958 0.36840295792
          0.85898065567 -1.3345043659 -0.12378259003 1.8302115202 -2.3958208561 0.16662742198
          5.2723889351 -6.5875086784 -0.11700297147 2.2924747467 -3.6066148281 -0.13997334242
          3.8332948685 -5.1302709579 2.8427750749e-06 5.1026329994 -5.3905849457 0.32059031725
          9.1152544022 -8.4924030304 0.26530149579 3.208646059 -3.6977722645 0.36177697778
          7.8772106171 -8.3210287094 7.6401482829e-07 0.55510902405 -0.59680002928 0.12873987854
          0.85784083605 -1.3607834578 1.4867689515e-06 5.5854482651 -6.9091801643 1.6676407313e-06
          2.3013408184 -3.6214544773 3.0689463983e-06 1.1457430124 -2.2381284237 -0.21302306652
          6.7178621292 -8.1195163727 -0.35174593329 11.902929306 -9.0012121201 0.67756390572
          0 0 0 3.7979602814 -5.1413340569 0.1435033977
          0.30621084571 -0.077434204519 0.21585887671 1.1639009714 -2.3181495667 -0.10894136131
          6.2050328255 -6.5527524948 0.40608659387 10.444570541 -8.6894979477 0.60375976562
          6.7494602203 -8.1746206284 -0.16471432149 13.003038406 -10.561008453 -0.65662419796
          0 0 0 1.8017401695 -2.3222460747 0.324075073
          13.019879341 -10.620035172 -0.32810938358 0.14699886739 -0.089098341763 -0.10322668403
          11.415533066 -10.261703491 -0.57762885094 7.8780226707 -8.2988462448 0.22786071897
          0 0 0 0.85898119211 -1.3345060349 0.12378537655
          11.43314743 -10.321856499 -0.28839218616 0.12196718156 -0.15440025926 -0.042689234018
          5.2723889351 -6.5875091553 0.11700625718 2.2924768925 -3.6066179276 0.13997906446
          9.0943870544 -8.4313249588 0.52909576893 1.1683884859 -2.3425884247 2.315550546e-06
          6.7711839676 -8.1754875183 1.1881253386e-06 0.57350808382 -0.50954538584 0.24907581508
          4.5873718262 -6.6415333748 -0.2302685827 0.27538183331 -0.5107216835 -0.11921503395
          9.9108161926 -10.021240234 -0.49819722772 2.7013967037 -4.9150457382 -0.22606790066
          13.026695251 -10.639847755 -4.2034830017e-07 0 0 0
          4.4909338951 -6.7015500069 0.023010751233 11.439032555 -10.342095375 -5.7284538002e-08
          0.12144186348 -0.16815306246 2.9988493111e-07 9.9304952621 -10.08125782 -0.24815066159
          0.26645624638 -0.5948972106 -0.061436329037 2.7284440994 -4.9704270363 -0.10924571753
          3.8205471039 -5.1205859184 0.3045104444 4.1425600052 -6.612200737 2.3787224563e-06
          1.4400515556 -3.4354460239 -0.1825427562 1.1639019251 -2.318151474 0.10894574225
          5.6566224098 -8.102596283 -0.27971681952 9.9352693558 -10.101071358 3.1138281997e-07
          7.8616251945 -8.2341842651 0.45222955942 6.7494602203 -8.174621582 0.16471669078
          2.7157273293 -4.9985079765 3.0883127238e-06 0.26176014543 -0.61955839396 7.8944498227e-07
          0.85174208879 -1.2463576794 0.23962754011 13.019879341 -10.620036125 0.32810854912
          8.5156774521 -9.8528146744 -0.41756436229 1.4611831903 -3.5055873394 -0.093057915568
          0.40935149789 -1.2248138189 -0.11470094323 5.6043000221 -8.114906311 -0.092502705753
          5.125825882 -6.3813037872 0.20414292812 2.261598587 -3.5422449112 0.28100576997
          0 0 0 0.41289719939 -1.3118177652 -0.059089731425
          11.43314743 -10.321857452 0.28839206696 0.12196724117 -0.15440046787 0.042689818889
          8.5366859436 -9.9092235565 -0.20714046061 1.4662853479 -3.529112339 2.818998837e-06
          5.522503376 -8.0193824768 1.6263733187e-06 4.4909334183 -6.7015509605 -0.023006550968
          8.5423984528 -9.926027298 7.0735080726e-07 0.41248491406 -1.3384652138 1.4071190435e-06
          9.9304952621 -10.081258774 0.24815128744 0.26645642519 -0.59489768744 0.061437867582
          2.7284455299 -4.9704289436 0.10925155133 1.1457449198 -2.2381315231 0.2130266875
          6.7178616524 -8.1195173264 0.35174828768 7.2304592133 -9.7457838058 -0.34277412295
          13.003038406 -10.561009407 0.65662330389 0 0 0
          0.55114394426 -2.192909956 -0.10145714134 0.14699926972 -0.089098714292 0.10322728753
          11.415532112 -10.261704445 0.57762879133 1.4611842632 -3.5055890083 0.093063287437
          5.6043000221 -8.1149072647 0.092505998909 7.2384848595 -9.8037595749 -0.16794344783
          3.0598890781 -6.5005235672 -0.16344629228 0.56039941311 -2.2737636566 -0.051907066256
          0.41289755702 -1.3118185997 0.059092447162 8.5366859436 -9.9092235565 0.20714187622
          3.0789792538 -6.5035438538 -0.10653396696 4.6477851868 -8.2089853287 -0.18316838145
          1.7137331963 -4.8145370483 -0.15481199324 14.081461906 -12.233596802 -0.64303475618
          0 0 0 12.350172043 -11.936558723 -0.55658107996
          4.5873713493 -6.6415352821 0.23027284443 0.27538257837 -0.51072239876 0.11921643466
          9.910815239 -10.021242142 0.49819785357 1.7372069359 -4.8699197769 -0.077853478491
          4.7024364471 -8.2366628647 -0.14103989303 2.7013990879 -4.9150485992 0.22607299685
          14.09445858 -12.297337532 -0.32055181265 0 0 0
          0.56259638071 -2.2997922897 1.9830488327e-06 7.2421989441 -9.82462883 1.1392368151e-06
          -0.0052908300422 -0.092476263642 0.0039364113472 12.364571571 -12.000711441 -0.27689146996
          -0.0040322910063 -0.15639707446 0.0016140020452 3.119104147 -6.4809727669 2.9472712413e-06
          10.677333832 -11.708395958 -0.46679523587 1.7492384911 -4.8850593567 2.9780235309e-06
          4.5932221413 -8.1002445221 2.2037327199e-06 14.099822998 -12.318163872 -4.7391642966e-07
          0 0 0 -0.009150234051 -0.50977027416 0.0054044942372
          10.694681168 -11.769454956 -0.23156303167 12.369143486 -12.021100044 -1.2175304676e-07
          1.4400535822 -3.4354484081 0.18254737556 5.656621933 -8.1025981903 0.27972012758
          -0.0039085317403 -0.17007561028 2.9932951406e-07 -0.0079853199422 -0.59252566099 0.002733462723
          8.5156774521 -9.8528165817 0.4175657928 0.40935257077 -1.2248148918 0.11470333487
          0.69377928972 -3.3758709431 -0.086934819818 6.0323786736 -9.6634454727 -0.26760724187
          0.56039994955 -2.2737643719 0.051910880953 7.2384843826 -9.8037605286 0.16794572771
          0.70520728827 -3.4470238686 -0.04391553998 6.0275354385 -9.7464332581 -0.14885726571
          3.0789797306 -6.5035443306 0.10653973371 10.698633194 -11.787593842 2.3162616003e-07
          -0.0075612608343 -0.61698693037 6.9504278599e-07 9.1197433472 -11.560471535 -0.38383254409
          1.7372077703 -4.8699212074 0.077859215438 4.7024359703 -8.2366638184 0.14104418457
          14.09445858 -12.297338486 0.32055088878 0 0 0
          -0.011769932695 -1.2150269747 0.0067477682605 9.1361894608 -11.614589691 -0.18802839518
          12.364571571 -12.000712395 0.27689123154 -0.010638700798 -1.301109314 0.0033977895509
          0.70939725637 -3.4698693752 2.3682866868e-06 6.0062155724 -9.7918720245 1.6141392507e-06
          -0.0040322178975 -0.15639716387 -0.0016134218313 10.694681168 -11.76945591 0.23156350851
          9.1360883713 -11.631726265 5.8998858776e-07 -0.010218165815 -1.3278036118 1.1333446537e-06
          7.2304587364 -9.7457857132 0.34277638793 3.462054491 -8.1043376923 -0.1295928508
          -0.0079851262271 -0.59252583981 -0.0027320981026 0.55114519596 -2.1929111481 0.10146051645
          1.9832617044 -6.3358960152 -0.12840874493 3.4355173111 -8.1146354675 -0.076807975769
          3.0598897934 -6.5005254745 0.16345125437 2.0016512871 -6.3766860962 -0.064224660397
          0.70520788431 -3.4470245838 0.043920118362 6.0275354385 -9.7464342117 0.14886048436
          4.6477847099 -8.208987236 0.1831727773 1.7137346268 -4.8145389557 0.15481702983
          -0.013231642544 -2.173776865 0.0081584267318 7.7149629593 -11.474209785 -0.31999838352
          14.081460953 -12.233597755 0.64303380251 0 0 0
          12.350172043 -11.936559677 0.55658084154 -0.011924458668 -2.2542085648 0.0040864013135
          3.4199473858 -8.0898513794 2.9503978567e-06 0.83481538296 -4.7369837761 -0.071882009506
          4.665561676 -9.5407819748 -0.13810241222 7.7189292908 -11.516577721 -0.15349569917
          -0.0052904305048 -0.092476330698 -0.0039358143695 2.0015439987 -6.3876404762 2.9456675747e-06
          9.1361894608 -11.614590645 0.18802963197 -0.010638398118 -1.3011095524 -0.0033955837134
          4.7411637306 -9.6904621124 -0.062884867191 0.84603255987 -4.7975740433 -0.036829736084
          10.677332878 -11.708397865 0.46679571271 -0.011411272921 -2.2801458836 1.5203564772e-06
          7.7133784294 -11.528625488 1.0291742001e-06 -0.0091495662928 -0.50977039337 -0.0054032169282
          4.9410538673 -9.9201049805 2.1578698579e-06 15.150561333 -14.04660511 -0.63175159693
          0 0 0 0.84908956289 -4.8168768883 2.5275173812e-06
          15.160632133 -14.113026619 -0.31371313334 0 0 0
          3.4355168343 -8.1146364212 0.0768135041 13.271523476 -13.746131897 -0.53790390491
          0.69378042221 -3.3758716583 0.086938902736 6.0323781967 -9.6634473801 0.26761043072
          -0.15729209781 -0.087376147509 0.11067424715 2.0016517639 -6.376686573 0.064230330288
          13.281573296 -13.812591553 -0.26814389229 -0.12982043624 -0.15222939849 0.045726519078
          9.1197433472 -11.560473442 0.38383379579 15.16382122 -14.133699417 -5.0951257435e-07
          -0.01192408707 -2.2542088032 -0.004083443433 11.41135788 -13.488297462 -0.44235682487
          -0.29303365946 -0.50481635332 0.12955459952 7.7189288139 -11.516578674 0.15349777043
          0 0 0 6.3868217468 -11.448397636 -0.25574272871
          -0.012997292913 -3.3472924232 0.0099128941074 -0.011769103818 -1.2150269747 -0.006745741237
          -0.28179931641 -0.58845049143 0.066622421145 11.422781944 -13.553509712 -0.21655727923
          13.284503937 -13.83296299 -1.7521132634e-07 4.7411637306 -9.6904630661 0.062889091671
          -0.011475840583 -3.418847084 0.0048335921019 6.3782696724 -11.455273628 -0.10566281527
          0.84603309631 -4.7975745201 0.03683463484 -0.12901431322 -0.16593553126 2.1086783875e-07
          2.2266776562 -7.9566545486 -0.10330149531 11.42580986 -13.570679665 1.3526880593e-07
          3.4620537758 -8.1043386459 0.12959761918 -0.27629557252 -0.61301600933 4.8112633522e-07
          -0.010942224413 -3.4422383308 1.7828875798e-06 2.2328565121 -7.9917936325 -0.047998547554
          6.3722028732 -11.425105095 1.5339612673e-06 1.9832623005 -6.335896492 0.12841387093
          15.160632133 -14.113027573 0.31371212006 9.6511240005 -13.360788345 -0.33438581228
          0.96915745735 -6.2424902916 -0.057288661599 0 0 0
          -0.43147388101 -1.21324265 0.12776781619 3.8669621944 -9.8167533875 -0.20863634348
          -0.43275460601 -1.2996987104 0.065629944205 9.65629673 -13.407121658 -0.17111432552
          13.281573296 -13.812591553 0.26814353466 0.97879362106 -6.2942028046 -0.029904259369
          3.7550406456 -9.8397350311 0.057294398546 -0.12982036173 -0.15222938359 -0.045726105571
          -0.013230781071 -2.173776865 -0.0081557184458 7.7149624825 -11.474210739 0.32000041008
          2.233341217 -8.0023317337 2.8509418826e-06 0.83481621742 -4.7369842529 0.071886464953
          4.665561676 -9.5407848358 0.13810677826 9.6494474411 -13.420052528 4.7726740604e-07
          11.422781944 -13.553509712 0.21655757725 0.98288226128 -6.310479641 2.5131544135e-06
          -0.28179913759 -0.58845049143 -0.066621467471 -0.43150648475 -1.3262144327 7.6181379427e-07
          -0.011475451291 -3.4188473225 -0.0048301187344 6.3782691956 -11.455274582 0.10566584021
          3.6303925514 -9.7521905899 2.985435458e-06 5.1323804855 -11.513989449 -0.22817768157
          -0.010535254143 -4.6982917786 0.011977832764 5.0131230354 -11.452598572 -0.061815131456
          -0.0086471438408 -4.7606315613 0.0057973461226 15.150561333 -14.046607018 0.63175064325
          0 0 0 2.2328562737 -7.9917941093 0.04800407216
          -0.5750131011 -2.1753408909 0.11744106561 8.1718540192 -13.295111656 -0.29937565327
          -0.5817579627 -2.2555627823 0.059844758362 13.271523476 -13.746133804 0.53790360689
          -0.15729176998 -0.087376020849 -0.11067380011 8.1691179276 -13.319821358 -0.14652067423
          9.65629673 -13.407122612 0.17111523449 0.97879391909 -6.2942032814 0.029909159988
          -0.43275436759 -1.2996987104 -0.065628446639 3.7550382614 -9.8397359848 -0.057288330048
          4.8669700623 -11.31539917 2.0208515252e-06 -0.0077561582439 -4.7810797691 1.8919976128e-06
          11.41135788 -13.48829937 0.4423571527 -0.29303315282 -0.5048161149 -0.12955366075
          6.3868207932 -11.44839859 0.25574561954 -0.58301913738 -2.2813405991 9.9618011973e-07
          -0.012996529229 -3.3472921848 -0.0099096931517 8.1669845581 -13.325033188 8.822117934e-07
          16.206607819 -16.028484344 -0.61554276943 0 0 0
          2.2266774178 -7.9566555023 0.1033065021 5.0131220818 -11.452598572 0.06181916222
          0 0 0 14.180510521 -15.730858803 -0.5280534029
          1.0945618153 -7.870241642 -0.046317759901 -0.0086468048394 -4.7606315613 -0.0057936469093
          -0.31553539634 -0.074638932943 0.22200405598 2.4320044518 -9.7167015076 -0.068278707564
          16.214412689 -16.090126038 -0.30566090345 9.6511240005 -13.360790253 0.33438673615
          14.185897827 -15.792644501 -0.26328217983 -0.26129284501 -0.14245018363 0.09197640419
          0.96915781498 -6.2424902916 0.057293165475 1.1028900146 -7.9115920067 -0.025337696075
          -0.43147325516 -1.2132422924 -0.12776640058 6.7829217911 -13.231782913 -0.26805347204
          -0.58175766468 -2.2555627823 -0.059842802584 3.8669593334 -9.8167543411 0.20864084363
          -0.7177631259 -3.3498182297 0.10607843846 8.1691169739 -13.319822311 0.14652234316
          2.4300904274 -9.7188138962 -0.070317968726 -0.72573381662 -3.4208333492 0.053443964571
          6.759499073 -13.233314514 -0.11805286258 12.196291924 -15.4540205 -0.43372032046
          16.214899063 -16.109144211 -5.0953138953e-07 -0.58979475498 -0.49752628803 0.2579189539
          0 0 0 12.191623688 -15.517428398 -0.21546591818
          -0.56900852919 -0.58392912149 0.13308370113 14.187855721 -15.811070442 -2.033048645e-07
          3.9877793789 -11.622601509 -0.22391338646 1.1070262194 -7.9220647812 2.3977577257e-06
          2.4367470741 -9.6820030212 2.6696704936e-06 -0.0036131935194 -6.1949019432 0.014164926484
          -0.26000460982 -0.15611940622 9.6416577833e-08 4.0014266968 -11.616886139 -0.11890251935
          6.7561516762 -13.214509964 1.281683808e-06 -0.0012701295782 -6.2484703064 0.0066030719317
          -0.72836321592 -3.443956852 1.1440672552e-06 5.1323795319 -11.513991356 0.22818136215
          12.192362785 -15.533471107 7.4316787391e-08 -0.010534694418 -4.6982917786 -0.011974392459
          -0.55843818188 -0.60849136114 2.3340403743e-07 10.052778244 -15.199919701 -0.31454512477
          16.214412689 -16.090126038 0.30565989017 3.8453168869 -11.411556244 2.3989798592e-06
          -0.87006622553 -1.2214576006 0.25139307976 -0.57501244545 -2.175340414 -0.11743921787
          -0.00017981183191 -6.2659187317 1.8692235244e-06 8.1718530655 -13.29511261 0.29937720299
          0 0 0 10.054128647 -15.256930351 -0.17007125914
          -0.87504768372 -1.3089175224 0.12952414155 14.185897827 -15.792645454 0.2632817626
          1.1028901339 -7.9115920067 0.025342382491 2.4300899506 -9.7188138962 0.070323117077
          -0.26129278541 -0.14245012403 -0.091976203024 6.7594981194 -13.233315468 0.11805539578
          -0.7257335186 -3.4208331108 -0.053441714495 12.191623688 -15.517428398 0.2154660821
          10.0614748 -15.277438164 3.7784747065e-07 5.4203395844 -13.221426964 -0.2497908026
          -0.85324579477 -4.6983866692 0.095495760441 -0.87322634459 -1.3352377415 3.7189272462e-07
          -0.56900840998 -0.58392900229 -0.1330832243 -0.86060416698 -4.7595024109 0.047803603113
          4.0014233589 -11.616885185 0.11890725791 5.3067574501 -13.187040329 -0.12169885635
          -0.0012698787032 -6.2484703064 -0.0065994053148 8.6346120834 -15.110315323 -0.33529669046
          16.206607819 -16.028486252 0.61554181576 0 0 0
          -1.1620589495 -2.201253891 0.22776454687 8.6336460114 -15.135467529 -0.14925651252
          14.180510521 -15.730859756 0.52805304527 -1.1778901815 -2.2803869247 0.11609683931