<?xml version="1.0"?>
<VTKFile type="UnstructuredGrid" version="0.1" byte_order="LittleEndian" header_type="UInt32" compressor="vtkZLibDataCompressor">
  <UnstructuredGrid>
    <Piece NumberOfPoints="6405" NumberOfCells="4800">
      <PointData>
        <DataArray type="Float32" Name="DISPLACEMENT" NumberOfComponents="3" ComponentName0="X-DISPLACEMENT" ComponentName1="Y-DISPLACEMENT" ComponentName2="Z-DISPLACEMENT" format="ascii" RangeMin="0" RangeMax="314.19080317">
          0 0 0 0 0 0
          2.5329334736 -1.5020228624 -1.182117939 0 0 0
          1.5989429951 -0.86278933287 -0.88575685024 0 0 0
          2.3222899437 -1.688598752 -0.47146645188 1.3912023306 -1.0251122713 -0.36100235581
          0 0 0 4.5815701485 -2.8362123966 -1.2063024044
          0 0 0 4.5237226486 -3.0617341995 -0.61973357201
          3.2299752235 -2.3018362522 -0.94737571478 0 0 0
          0 0 0 2.334577322 -1.7515823841 -9.4020165875e-08
          1.2704535723 -0.52628642321 -0.64284473658 1.3817474842 -1.0623717308 -5.0534829654e-09
          3.1706442833 -2.4896047115 -0.48244801164 1.1803951263 -0.71707850695 -0.26203235984
          4.4738545418 -3.124673605 -1.5591231772e-07 2.3042485714 -1.8762331009 -0.62499588728
          0 0 0 3.128464222 -2.5440621376 -6.4597183158e-10
          2.2187721729 -2.0555267334 -0.31736844778 0 0 0
          6.442252636 -4.6897029877 -1.1127229929 0 0 0
          1.1968924999 -0.76099270582 1.2829659113e-07 0 0 0
          0 0 0 2.3222899437 -1.6885989904 0.47146627307
          4.7214007378 -4.211230278 -0.89624375105 6.4667797089 -4.8534417152 -0.56451302767
          1.1724056005 -0.60306310654 -0.20172871649 1.3912023306 -1.0251125097 0.36100235581
          4.7356958389 -4.366358757 -0.45391088724 1.1264549494 -0.85126781464 -0.11586367339
          2.1643097401 -2.0933859348 1.6979879547e-07 4.5237226486 -3.0617346764 0.61973321438
          0 0 0 0 0 0
          1.2174438238 -1.6523522139 -0.26779121161 3.3484518528 -3.8646819592 -0.67461663485
          6.449037075 -4.9093227386 -2.1385316984e-07 3.1706442833 -2.4896051884 0.48244801164
          3.2936062813 -4.002263546 -0.3443210423 1.1803951263 -0.71707874537 0.26203259826
          4.724132061 -4.4135670662 -1.9540795648e-08 1.1068087816 -1.8441162109 -0.15984985232
          1.0725595951 -0.8970054388 3.3932698784e-07 0 0 0
          8.0975694656 -6.8670496941 -0.96792596579 0 0 0
          6.0926375389 -6.4608902931 -0.83289068937 2.2187721729 -2.0555269718 0.31736880541
          8.1466693878 -6.9740929604 -0.49008104205 2.5329334736 -1.5020232201 1.1821178198
          0 0 0 0 0 0
          1.059956193 -1.881934166 3.2476580714e-07 3.2667779922 -4.0365457535 1.6239044953e-07
          0.91710042953 -0.91936039925 -0.25856047869 6.1295824051 -6.5632190704 -0.41819906235
          1.5989429951 -0.86278969049 0.88575690985 1.7159147263 -3.6231131554 -0.49330174923
          0 0 0 6.4667797089 -4.8534421921 0.56451261044
          0.75197631121 -1.0108654499 -0.10607012361 1.6138063669 -3.7453176975 -0.24626713991
          4.7356958389 -4.3663592339 0.45391082764 1.1264548302 -0.85126805305 0.11586435139
          4.3638305664 -6.1965880394 -0.70910722017 1.1480967999 -2.2542290688 -0.64680337906
          8.1451196671 -7.0114765167 -2.5710519935e-07 4.5815701485 -2.8362128735 1.2063020468
          0 0 0 0 0 0
          4.3565487862 -6.2711977959 -0.35489994287 3.2299752235 -2.3018369675 0.94737571478
          6.133954525 -6.5977525711 -3.8271551261e-08 1.0807572603 -2.2199342251 -0.25642371178
          1.2704538107 -0.52628695965 0.64284497499 0.77267181873 -1.0830538273 6.1567709508e-07
          1.5811480284 -3.7797572613 3.5499189721e-07 3.2936062813 -4.0022640228 0.34432139993
          1.1068085432 -1.8441165686 0.15985052288 4.3566184044 -6.2956633568 1.7268008889e-07
          2.3042485714 -1.8762336969 0.6249961853 1.1162171364 -2.2966732979 5.251241646e-07
          2.6879246235 -6.0437669754 -0.6753538847 8.1466693878 -6.9740934372 0.49008053541
          6.442252636 -4.6897039413 1.1127226353 0 0 0
          9.5485725403 -9.2003660202 -0.85047453642 0 0 0
          0 0 0 1.5466277599 -4.1524605751 -0.72114229202
          2.5874800682 -6.059715271 -0.31294178963 9.5972261429 -9.2671937943 -0.42888447642
          7.3549575806 -8.8316602707 -0.76711332798 6.1295824051 -6.5632195473 0.41819900274
          0.29368004203 -1.0287991762 -0.29083094001 0 0 0
          4.7214007378 -4.2112312317 0.89624375105 1.1724053621 -0.60306364298 0.20172931254
          1.5676276684 -4.1314749718 -0.26375517249 0.7519762516 -1.0108656883 0.10607116669
          0.20770277083 -1.086083889 -0.12123490125 1.6138063669 -3.7453181744 0.24626788497
          7.3986587524 -8.8987026215 -0.38463953137 4.3565487862 -6.2711987495 0.3549003005
          2.4924390316 -6.0427618027 4.3131973371e-07 9.6040849686 -9.2918930054 -2.9069826724e-07
          0.38331252337 -2.5288085938 -0.55003237724 1.0807573795 -2.2199347019 0.25642505288
          0 0 0 5.3917431831 -8.549621582 -0.69363081455
          1.2174435854 -1.6523528099 0.26779186726 3.3484518528 -3.8646829128 0.67461705208
          1.5703959465 -4.1916942596 6.7844155183e-07 7.4095649719 -8.9230384827 -6.1406204566e-08
          0.20863717794 -1.105011344 4.8843389777e-07 0.42796900868 -2.5433049202 -0.30210053921
          5.4145159721 -8.6119527817 -0.34935417771 8.0975694656 -6.8670506477 0.96792542934
          0 0 0 1.8704917431 -6.1999154091 -0.56027907133
          6.0926375389 -6.4608912468 0.83289062977 0.40837973356 -2.532361269 1.0296513437e-06
          1.9441119432 -6.2647237778 -0.31715980172 5.4189248085 -8.6390285492 1.825702185e-07
          0.91710060835 -0.91936117411 0.25856164098 2.587480545 -6.0597157478 0.3129426837
          3.6362991333 -8.3344268799 -0.63882112503 9.5972251892 -9.2671937943 0.42888388038
          0.63695335388 -4.453584671 -0.54087734222 1.7159147263 -3.623114109 0.4933026433
          0 0 0 1.5676276684 -4.1314754486 0.2637565136
          3.6192367077 -8.3914680481 -0.3259267509 0.20770272613 -1.0860841274 0.12123592198
          0.68215143681 -4.4892044067 -0.31036052108 7.3986582756 -8.8987026215 0.38463941216
          4.3638305664 -6.1965889931 0.70910763741 1.1480967999 -2.254229784 0.64680469036
          10.857233047 -11.593993187 -0.76969766617 0 0 0
          1.9721601009 -6.274620533 8.4687309254e-07 8.5418395996 -11.241042137 -0.70681655407
          10.897820473 -11.642952919 -0.38664621115 0 0 0
          0.076417952776 -1.2384147644 -0.15561197698 8.5809631348 -11.293808937 -0.35357919335
          3.5706567764 -8.4091291428 4.8172859124e-07 0.018498264253 -1.2961243391 -0.065304480493
          0.42796888947 -2.543305397 0.30210247636 0.69184654951 -4.4694046974 1.1444959682e-06
          5.4145154953 -8.6119537354 0.34935456514 6.4183282852 -10.944227219 -0.6410600543
          -0.016674999148 -2.7899420261 -0.1889783442 10.907828331 -11.660943985 -3.3556716517e-07
          0 0 0 -0.10873125494 -2.8954641819 -0.13705790043
          6.4481463432 -11.000242233 -0.32148870826 8.5921049118 -11.31310463 -1.135002563e-07
          0.0064117638394 -1.3023256063 5.7530763797e-07 2.6879251003 -6.0437684059 0.67535483837
          2.1418063641 -8.2428474426 -0.4893078208 9.5485725403 -9.2003669739 0.85047388077
          0 0 0 0.94038540125 -6.5210270882 -0.53486204147
          1.944111824 -6.2647242546 0.31716144085 1.5466278791 -4.1524620056 0.72114366293
          7.3549575806 -8.8316612244 0.76711314917 0.29368034005 -1.0287996531 0.29083183408
          0.96877413988 -6.5659952164 -0.27385181189 2.2169997692 -8.3310613632 -0.27900993824
          3.6192369461 -8.3914680481 0.32592767477 0.68215125799 -4.4892048836 0.31036278605
          6.4523339272 -11.021052361 1.2780942882e-07 -0.10928957909 -2.8998110294 1.1147105852e-06
          4.4831056595 -10.723858833 -0.56392896175 -0.34310686588 -4.7333016396 -0.50096398592
          0.38331240416 -2.528809309 0.55003428459 10.897820473 -11.642952919 0.38664552569
          5.3917431831 -8.5496225357 0.69363117218 0 0 0
          2.3084483147 -8.390920639 7.9021731381e-07 1.0158325434 -6.5850920677 1.196668677e-06
          4.511961937 -10.778075218 -0.28590750694 8.5809631348 -11.293808937 0.35357895494
          -0.36052191257 -4.7666358948 -0.24901838601 0.018498208374 -1.2961245775 0.065305538476
          1.8704915047 -6.1999168396 0.56028044224 4.5150098801 -10.793291092 3.9972894683e-07
          6.4481458664 -11.000243187 0.32148894668 -0.1087314263 -2.8954646587 0.1370601207
          -0.35030984879 -4.7770400047 1.6150142983e-06 12.080904961 -14.041576385 -0.71821051836
          0 0 0 12.111222267 -14.085662842 -0.35902348161
          3.6362993717 -8.3344278336 0.6388219595 9.6653194427 -13.702634811 -0.65861612558
          0.63695299625 -4.4535861015 0.5408795476 1.204710722 -8.6572885513 -0.55881917477
          -0.057436779141 -1.4637616873 -0.037582743913 0.96877378225 -6.5659956932 0.27385413647
          2.2169992924 -8.3310623169 0.27901145816 0 0 0
          9.6950073242 -13.750324249 -0.3281365037 1.2543619871 -8.6891174316 -0.26039984822
          -0.091420598328 -1.5185495615 -0.012097852305 2.6321072578 -10.633605003 -0.48153418303
          -0.066525861621 -6.8472523689 -0.53225129843 10.857232094 -11.593994141 0.76969695091
          0 0 0 8.5418395996 -11.241043091 0.70681625605
          12.120463371 -14.101032257 -4.105867788e-07 -0.072275571525 -6.857216835 -0.26644471288
          2.6731894016 -10.674855232 -0.24178475142 0.076418325305 -1.238415122 0.15561304986
          7.391664505 -13.418978691 -0.59122616053 -0.25487676263 -3.1753261089 -0.086002826691
          0 0 0 4.511961937 -10.778076172 0.2859082818
          -0.3605223 -4.7666363716 0.24902157485 9.7039785385 -13.766278267 -2.0559892278e-07
          1.3409430981 -8.763053894 1.0881714161e-06 7.4179315567 -13.466708183 -0.29321089387
          -0.31020307541 -3.2479765415 -0.031413301826 -0.10107179731 -1.5284153223 6.0685886183e-07
          6.4183278084 -10.944228172 0.64106023312 -0.016674742103 -2.7899427414 0.18898032606
          2.7140777111 -10.688812256 6.6684378908e-07 -0.071346908808 -6.8615894318 1.5546318082e-06
          2.1418058872 -8.2428483963 0.48930928111 7.4245200157 -13.479587555 1.4902148848e-08
          -0.34130528569 -3.2707338333 1.2456863487e-06 0.94038498402 -6.5210280418 0.53486430645
          12.111221313 -14.085662842 0.35902264714 5.2735805511 -13.231123924 -0.513197124
          0 0 0 -0.48355692625 -5.0328416824 -0.1191508323
          5.2959518433 -13.2690382 -0.25555184484 9.6950073242 -13.750325203 0.32813608646
          -0.09142062813 -1.5185496807 0.012099012733 1.2543615103 -8.6891183853 0.26040199399
          -0.61340266466 -5.1364264488 -0.11522042751 4.4831051826 -10.723859787 0.56392967701
          1.4194561243 -10.906903267 -0.54270124435 2.6731891632 -10.674856186 0.24178609252
          -0.34310746193 -4.7333030701 0.50096714497 -0.072275996208 -6.8572173119 0.26644784212
          0.21561731398 -9.0833024979 -0.59689998627 1.4888938665 -10.937008858 -0.26506119967
          5.3033971786 -13.278202057 2.5213370236e-07 7.4179310799 -13.466708183 0.29321089387
          -0.31020322442 -3.2479770184 0.03141572699 0.23145976663 -9.081328392 -0.29559251666
          -0.62397891283 -5.1373472214 1.7316407366e-06 13.248532295 -16.564538956 -0.68430221081
          0 0 0 -0.11117967218 -1.6763510704 0.017466759309
          1.6105759144 -11.039674759 9.5316096349e-07 3.2037010193 -13.139785767 -0.47278386354
          10.73210907 -16.239646912 -0.6246779561 12.080904007 -14.041577339 0.7182096839
          0 0 0 0 0 0
          0.23962686956 -9.0903072357 1.4092687479e-06 -0.93619602919 -7.2569952011 -0.63243144751
          13.269356728 -16.607141495 -0.34093114734 3.2195458412 -13.161710739 -0.23455858231
          10.752248764 -16.284305573 -0.31067353487 9.6653184891 -13.702635765 0.65861570835
          -0.12009182572 -1.7069299221 0.0138868168 1.2047100067 -8.657289505 0.55882126093
          -0.057436298579 -1.4637619257 0.037583891302 -0.99015533924 -7.2079744339 -0.31020542979
          5.2959513664 -13.269039154 0.25555235147 -0.61340302229 -5.1364269257 0.11522387713
          8.3116168976 -15.967664719 -0.55852812529 2.6321070194 -10.633606911 0.48153558373
          -0.066526636481 -6.8472533226 0.53225433826 0 0 0
          -0.32192543149 -3.4919893742 0.018483327702 13.276005745 -16.621088028 -5.2147544238e-07
          -0.12919227779 -1.7182170153 6.4072969508e-07 3.2323253155 -13.175447464 5.1093030606e-07
          8.3290090561 -16.010396957 -0.27575209737 7.3916640282 -13.418979645 0.59122616053
          10.758823395 -16.298006058 -3.3699842561e-07 -0.2548764348 -3.1753265858 0.086005106568
          -0.99074161053 -7.2073521614 1.9095159587e-06 -0.36265423894 -3.5455510616 0.018266761675
          1.4888932705 -10.937009811 0.26506307721 0.23145930469 -9.081328392 0.29559534788
          0.51096433401 -11.43964386 -0.65173077583 8.3350257874 -16.021024704 -1.4368036716e-07
          -0.38594913483 -3.5629925728 1.3182985867e-06 0.5386056304 -11.410359383 -0.30883848667
          5.9841175079 -15.79873848 -0.48816120625 0 0 0
          -0.65387880802 -5.4793972969 -0.014559980482 13.269356728 -16.607141495 0.34093010426
          -0.12009184062 -1.7069300413 -0.013885593973 3.2195458412 -13.161711693 0.23455962539
          5.9917259216 -15.826332092 -0.24582381546 5.2735795975 -13.231124878 0.51319760084
          10.752248764 -16.284305573 0.31067284942 1.7405173779 -13.317763329 -0.54940468073
          -0.56625241041 -9.5747737885 -0.74230909348 -0.48355704546 -5.0328421593 0.11915395409
          -0.76446926594 -5.554546833 -0.01706588082 -0.99015587568 -7.2079749107 0.31020927429
          1.7932405472 -13.313653946 -0.26111850142 -0.58976238966 -9.5099687576 -0.35684004426
          0.57133370638 -11.440434456 1.1930578694e-06 1.4194552898 -10.906904221 0.54270297289
          8.3290090561 -16.010396957 0.27575179935 0.21561641991 -9.0833034515 0.59690278769
          5.9938454628 -15.834515572 5.5395528165e-08 -0.36265432835 -3.5455513 -0.018264189363
          -0.79899680614 -5.5821290016 1.9123644961e-06 1.874181509 -13.365994453 7.3609601259e-07
          -0.59212046862 -9.5034732819 1.6718275901e-06 -1.1473712921 -7.6310753822 -0.36146816611
          3.7807307243 -15.733371735 -0.47672495246 13.248531342 -16.564538956 0.68430107832
          0 0 0 0.53860503435 -11.410360336 0.30884084105
          -0.11117913574 -1.6763513088 -0.017465524375 -1.3269370794 -7.7063512802 -0.25475302339
          3.2037005424 -13.13978672 0.47278490663 10.73210907 -16.239646912 0.62467724085
          3.7870774269 -15.73986721 -0.2401676476 14.372911453 -19.17496109 -0.66088670492
          0 0 0 -0.93619704247 -7.2569961548 0.6324352622
          14.38613987 -19.215478897 -0.32904845476 -0.095490023494 -1.819945097 0.035914491862
          11.755965233 -18.861461639 -0.60380584002 5.991724968 -15.826333046 0.24582391977
          0 0 0 -0.76446968317 -5.554546833 0.017069604248
          11.76819706 -18.902770996 -0.3001767695 -0.093223795295 -1.8336206675 0.018965750933
          1.7932399511 -13.3136549 0.26111993194 -0.5897629261 -9.5099697113 0.35684338212
          8.3116159439 -15.967665672 0.55852776766 -1.3441393375 -7.6921906471 2.1555670173e-06
          3.795678854 -15.749697685 2.7744889053e-07 -0.32192498446 -3.4919896126 -0.018480913714
          0.76099079847 -13.794739723 -0.66381132603 -0.25356143713 -3.7410235405 0.046231660992
          9.1993875504 -18.597585678 -0.5424451232 -0.14350177348 -12.048407555 -0.78294599056
          14.390219688 -19.228330612 -6.6623840667e-07 0 0 0
          0.81485408545 -13.779500008 -0.30974581838 11.77252388 -18.914997101 -5.0279481911e-07
          -0.09760504216 -1.8423011303 6.5748656652e-07 9.2072134018 -18.635053635 -0.26872423291
          -0.26841554046 -3.7699701786 0.02906996198 -0.15460146964 -11.973203659 -0.36952638626
          0.51096320152 -11.439644814 0.65173304081 0.8816113472 -13.833369255 8.9106879386e-07
          -1.2620248795 -10.079436302 -0.8645772934 -1.3269380331 -7.706351757 0.25475743413
          2.2000105381 -15.867702484 -0.55732607841 9.2103643417 -18.644964218 -3.3605402905e-07
          5.9841165543 -15.798739433 0.48816129565 3.7870771885 -15.739868164 0.24016819894
          -0.17521254718 -11.956736565 1.3732593516e-06 -0.2799732089 -3.7878725529 1.3595160908e-06
          -0.65387898684 -5.4793977737 0.014563275501 14.38613987 -19.215478897 0.32904711366
          6.65650177 -18.417072296 -0.48692554235 -1.2505238056 -10.00454998 -0.42872682214
          -0.47898560762 -5.8309864998 0.028976360336 2.2358326912 -15.847223282 -0.26621064544
          1.7405165434 -13.317764282 0.54940605164 -0.5662534833 -9.5747756958 0.74231249094
          0 0 0 -0.53425884247 -5.8880019188 0.02505819127
          11.768196106 -18.902772903 0.30017575622 -0.093223787844 -1.8336207867 -0.01896449551
          6.6612730026 -18.440294266 -0.24625568092 -1.2555830479 -9.9863443375 1.8953774088e-06
          2.2821133137 -15.868337631 4.4843363867e-07 0.81485331059 -13.779500008 0.30974760652
          6.6678652763 -18.449998856 -1.7416932963e-07 -0.56800544262 -5.9192667007 1.959711426e-06
          9.2072124481 -18.635053635 0.26872354746 -0.26841560006 -3.769970417 -0.029067298397
          -0.15460197628 -11.973204613 0.36952912807 -1.147372961 -7.6310763359 0.36147269607
          3.7807300091 -15.733372688 0.4767254889 4.335398674 -18.344118118 -0.4917357564
          14.3729105 -19.17496109 0.66088527441 0 0 0
          -0.85437804461 -8.0639381409 0.039361875504 -0.095489427447 -1.8199452162 -0.035913217813
          11.755964279 -18.861463547 0.60380482674 -1.2505244017 -10.004550934 0.42873063684
          2.2358322144 -15.847223282 0.26621153951 4.3539872169 -18.346538544 -0.24734966457
          0.24391528964 -14.501947403 -0.77090984583 -0.99585360289 -8.2159309387 -0.075173661113
          -0.53425908089 -5.8880023956 -0.025054369122 6.6612725258 -18.440296173 0.24625532329
          0.2253484875 -14.423956871 -0.34764930606 1.0791525841 -16.209941864 -0.65730702877
          -0.77360612154 -12.629968643 -0.83474206924 15.463916779 -21.870929718 -0.64555883408
          0 0 0 12.751509666 -21.565629959 -0.59250253439
          0.76098936796 -13.794740677 0.66381299496 -0.25356084108 -3.7410235405 -0.046229165047
          9.1993865967 -18.597585678 0.54244440794 -0.76036399603 -12.57190609 -0.40311664343
          1.1155234575 -16.178750992 -0.30423596501 -0.14350280166 -12.048409462 0.78294873238
          15.471590996 -21.908943176 -0.32162800431 0 0 0
          -0.99231880903 -8.246629715 2.2884441933e-06 4.3805761337 -18.359933853 5.2870969824e-09
          -0.039501450956 -1.8684167862 0.030464513227 12.758145332 -21.603342056 -0.29466369748
          -0.031020173803 -1.8754951954 0.012780571356 0.17549315095 -14.380977631 1.0176640899e-06
          10.069537163 -21.307390213 -0.53789240122 -0.78950339556 -12.545319557 1.536495347e-06
          1.1538178921 -16.194824219 5.5944423138e-07 15.473938942 -21.920946121 -8.4307771431e-07
          0 0 0 -0.068546026945 -3.8248641491 0.038929302245
          10.07267189 -21.338695526 -0.26739221811 12.760631561 -21.614439011 -6.9808930903e-07
          -1.2620261908 -10.079437256 0.86458110809 2.2000095844 -15.867703438 0.55732691288
          -0.030658820644 -1.8830486536 6.5149248485e-07 -0.063611246645 -3.8424489498 0.020352082327
          6.6565008163 -18.417072296 0.48692518473 -0.47898551822 -5.8309864998 -0.028972782195
          -2.0061216354 -10.568311691 -0.83105748892 2.7179338932 -18.44628334 -0.56483441591
          -0.99585396051 -8.2159309387 0.075178176165 4.3539867401 -18.346538544 0.24734967947
          -1.9810233116 -10.55594635 -0.4236817956 2.7416474819 -18.420179367 -0.27033129334
          0.22534789145 -14.423957825 0.34765133262 10.074550629 -21.347450256 -5.5115987152e-07
          -0.062114030123 -3.8600263596 1.3644906858e-06 7.3763446808 -21.111440659 -0.49997216463
          -0.76036453247 -12.571907043 0.40311974287 1.1155227423 -16.178750992 0.3042370677
          15.471590042 -21.908945084 0.32162630558 0 0 0
          -0.090606443584 -5.946231842 0.043743491173 7.3779931068 -21.128318787 -0.24959696829
          12.758145332 -21.603342056 0.29466226697 -0.090272150934 -6.0028276443 0.022624807432
          -1.9899930954 -10.542722702 2.1186167487e-06 2.7690188885 -18.427404404 1.4360547596e-07
          -0.031020153314 -1.8754951954 -0.012779323384 10.07267189 -21.338695526 0.26739111543
          7.3836183548 -21.136152267 -4.1052305733e-07 -0.090419352055 -6.034535408 2.0096226763e-06
          4.3353977203 -18.344120026 0.4917357862 0.58077549934 -16.848089218 -0.72671872377
          -0.063611246645 -3.8424489498 -0.020349405706 -0.85437840223 -8.0639390945 -0.039357833564
          -0.36002355814 -15.134981155 -0.73866844177 0.56607997417 -16.797740936 -0.32056802511
          0.24391408265 -14.501948357 0.77091187239 -0.38158306479 -15.072255135 -0.35273867846
          -1.9810240269 -10.55594635 0.42368611693 2.7416472435 -18.420179367 0.27033159137
          1.0791511536 -16.209941864 0.65730804205 -0.77360737324 -12.629969597 0.83474516869
          -0.1113088429 -8.314907074 0.042279884219 4.9734463692 -21.013786316 -0.52248477936
          15.463915825 -21.870929718 0.64555710554 0 0 0
          12.751508713 -21.565631866 0.59250104427 -0.11589114368 -8.4114923477 0.02387490496
          0.51091992855 -16.737762451 6.7193451514e-07 -1.6034729481 -13.135975838 -0.77636408806
          1.5315033197 -18.710149765 -0.64927399158 4.9939746857 -21.008924484 -0.25506111979
          -0.039500843734 -1.8684167862 -0.030463242903 -0.46093803644 -14.990963936 1.1650951137e-06
          7.37799263 -21.128318787 0.24959614873 -0.090272344649 -6.0028276443 -0.02262089774
          1.5340942144 -18.667175293 -0.29983901978 -1.5934083462 -13.114126205 -0.37206551433
          10.069536209 -21.30739212 0.53789126873 -0.12023570389 -8.4676218033 2.4268854304e-06
          5.0241794586 -21.018087387 -2.6776064033e-07 -0.068545401096 -3.8248641491 -0.038926776499
          1.5297042131 -18.651674271 2.2120507026e-07 16.533203125 -24.6450634 -0.63733786345
          0 0 0 -1.6502223015 -13.070750237 1.7285408376e-06
          16.537137985 -24.68155098 -0.31778112054 0 0 0
          0.56607913971 -16.797740936 0.32056936622 13.730865479 -24.343412399 -0.58688020706
          -2.0061230659 -10.568311691 0.83106189966 2.7179329395 -18.44628334 0.56483465433
          0.017003966495 -1.8048740625 0.024926578626 -0.38158360124 -15.072255135 0.35274103284
          13.734417915 -24.378868103 -0.29217913747 0.031573157758 -1.8178391457 0.006732984446
          7.3763432503 -21.111442566 0.49997133017 16.538593292 -24.693098068 -1.0539056348e-06
          -0.11589162797 -8.4114923477 -0.023870164528 10.938931465 -24.082832336 -0.53703230619
          0.1171753481 -3.7095942497 0.032347939909 4.9939746857 -21.008924484 0.25506061316
          0 0 0 3.2988665104 -21.05320549 -0.57629209757
          -0.12567561865 -11.1521101 0.049565248191 -0.090606227517 -5.946231842 -0.043739903718
          0.14129701257 -3.7373168468 0.011748977937 10.941472054 -24.110994339 -0.26749923825
          13.735933304 -24.389375687 -9.2321522516e-07 1.5340934992 -18.667175293 0.29983946681
          -0.14995270967 -11.443682671 0.017762379721 3.3103005886 -21.024600983 -0.27660125494
          -1.593408823 -13.114127159 0.3720690012 0.036554850638 -1.8260786533 6.3224962332e-07
          -0.056184701622 -17.455188751 -0.65156680346 10.942941666 -24.119274139 -7.8601289033e-07
          0.58077394962 -16.848089218 0.72672003508 0.15585492551 -3.7544133663 1.32941625e-06
          -0.15670761466 -11.473329544 2.6271400202e-06 -0.10438231379 -17.394338608 -0.30464732647
          3.3230137825 -21.02081871 -1.4956647476e-07 -0.36002486944 -15.134982109 0.73867070675
          16.537137985 -24.68155098 0.31777900457 8.1381626129 -23.869537354 -0.50719815493
          -1.2188004255 -15.679765701 -0.66625624895 0 0 0
          0.29547533393 -5.7811465263 0.054628428072 0.95040857792 -19.20483017 -0.67402374744
          0.35121780634 -5.8364238739 0.019481195137 8.1401729584 -23.88363266 -0.25268167257
          13.734416962 -24.378868103 0.29217725992 -1.2405104637 -15.647949219 -0.31220567226
          0.92224836349 -19.17029953 -0.30099716783 0.031573165208 -1.8178390265 -0.0067317700014
          -0.11130940914 -8.314907074 -0.04227546975 4.9734454155 -21.013788223 0.52248424292
          -0.23548938334 -17.261684418 7.8073600207e-07 -1.6034743786 -13.135976791 0.77636748552
          1.5315021276 -18.710151672 0.64927440882 8.1428251266 -23.890808105 -6.5040245545e-07
          10.9414711 -24.110994339 0.26749765873 -1.3567466736 -15.536896706 1.318311206e-06
          0.14129699767 -3.7373166084 -0.011746359058 0.38441795111 -5.8668808937 2.0033944566e-06
          -0.14995330572 -11.443683624 -0.017757318914 3.3103003502 -21.02460289 0.27660095692
          0.84501314163 -19.092723846 2.8909929028e-07 2.07062006 -21.235189438 -0.63791370392
          -0.17342352867 -14.046500206 -0.0050254371017 2.045050621 -21.190813065 -0.2961576581
          -0.18585932255 -14.366991043 -0.0072198212147 16.533201218 -24.6450634 0.63733571768
          0 0 0 -0.10438296944 -17.394338608 0.30464890599
          0.64574128389 -8.0113306046 0.045615043491 5.7206830978 -23.745796204 -0.55177074671
          0.77553504705 -8.1584939957 0.11622801423 13.730864525 -24.343414307 0.58687829971
          0.017004556954 -1.8048739433 -0.024925343692 5.7382249832 -23.734708786 -0.26504072547
          8.1401720047 -23.88363266 0.25268036127 -1.2405110598 -15.647949219 0.31220829487
          0.35121756792 -5.8364238739 -0.019477311522 0.92224746943 -19.17029953 0.30099776387
          2.0100758076 -21.157644272 -9.2017067743e-08 -0.1896969974 -14.263705254 2.1649468636e-06
          10.938930511 -24.082834244 0.53703069687 0.1171759516 -3.7095937729 -0.032345470041
          3.2988655567 -21.05320549 0.57629173994 0.76963323355 -8.1902942657 2.5288379675e-06
          -0.12567687035 -11.152111053 -0.049561087042 5.7610583305 -23.738790512 -5.2297536968e-07
          17.592760086 -27.49348259 -0.63492047787 0 0 0
          -0.056186180562 -17.455188751 0.65156829357 2.0450501442 -21.190813065 0.29615747929
          0 0 0 14.704776764 -27.191246033 -0.5843411088
          -0.98179376125 -17.936901093 -0.57715404034 -0.1858600527 -14.366991043 0.0072239302099
          0.034681774676 -1.6464726925 0.042648479342 0.22204570472 -19.672157288 -0.57450139523
          17.594520569 -27.530263901 -0.31675624847 8.1381616592 -23.869537354 0.50719678402
          14.70678997 -27.226858139 -0.2913120389 0.059835582972 -1.6748578548 0.011820065789
          -1.2188020945 -15.679765701 0.66625875235 -1.016541481 -17.908960342 -0.27062174678
          0.29547548294 -5.7811465263 -0.054624881595 3.9637188911 -23.690141678 -0.58265417814
          0.77553421259 -8.1584939957 -0.11622311175 0.95040673018 -19.20483017 0.67402434349
          1.7641136646 -10.49987793 0.87186515331 5.7382245064 -23.734708786 0.26503968239
          0.17500026524 -19.635715485 -0.2760193646 1.7328150272 -10.492394447 0.44363844395
          3.964261055 -23.667572021 -0.28239253163 11.815870285 -26.922117233 -0.53512680531
          17.595693588 -27.541950226 -1.3059673165e-06 0.18992245197 -3.4298987389 0.059209618717
          0 0 0 11.819713593 -26.951705933 -0.26687553525
          0.23900735378 -3.4796059132 0.02249080129 14.707879066 -27.23765564 -1.184034204e-06
          1.3770673275 -21.583360672 -0.62150907516 -1.182068944 -17.737157822 8.709607755e-07
          0.016803119332 -19.481781006 3.9863283519e-07 -0.20192378759 -16.475561142 -0.033690340817
          0.069195374846 -1.6848758459 6.1654293404e-07 1.3211586475 -21.554065704 -0.28574958444
          3.9637506008 -23.660232544 -4.2527662458e-07 -0.20448677242 -16.748765945 -0.013315721415
          1.7415548563 -10.479530334 2.8278534501e-06 2.0706191063 -21.235189438 0.6379134655
          11.821369171 -26.960798264 -1.048934223e-06 -0.17342549562 -14.046500206 0.0050291186199
          0.2646945715 -3.4954214096 1.2777941265e-06 8.9261379242 -26.688379288 -0.50204384327
          17.594518661 -27.530263901 0.31675362587 1.2048983574 -21.465003967 -5.0786862715e-08
          0.47251528502 -5.3882575035 0.10059202462 0.64574038982 -8.0113306046 -0.045610766858
          -0.20881099999 -16.613838196 1.6116637198e-06 5.7206821442 -23.745796204 0.55176973343
          0 0 0 8.930472374 -26.706279755 -0.25073429942
          0.58122962713 -5.4581151009 0.059244129807 14.706789017 -27.226860046 0.29130965471
          -1.0165421963 -17.908960342 0.27062344551 0.17499944568 -19.635715485 0.27602016926
          0.05983556062 -1.6748576164 -0.01181889046 3.9642608166 -23.667572021 0.28239166737
          1.7328135967 -10.492394447 -0.44363287091 11.819712639 -26.951705933 0.26687341928
          8.9311361313 -26.713996887 -9.0293110588e-07 2.6929218769 -23.768932343 -0.62039166689
          1.3385583162 -13.146377563 0.7982853055 0.61704826355 -5.4832606316 1.8767277652e-06
          0.23900726438 -3.4796056747 -0.022488284856 1.325755477 -13.130886078 0.38155949116
          1.3211579323 -21.554065704 0.28574946523 2.6489961147 -23.740674973 -0.29355454445
          -0.20448754728 -16.748765945 0.013318710029 6.5759353638 -26.530382156 -0.5614694953
          17.592758179 -27.49348259 0.63491779566 0 0 0
          0.90732765198 -7.4979114532 0.41743448377 6.5892910957 -26.516475677 -0.26776224375
          14.704774857 -27.191246033 0.58433866501 1.0851826668 -7.5705857277 0.28406202793