<?xml version="1.0"?>
<VTKFile type="UnstructuredGrid" version="0.1" byte_order="LittleEndian" header_type="UInt32" compressor="vtkZLibDataCompressor">
  <UnstructuredGrid>
    <Piece NumberOfPoints="6405" NumberOfCells="4800">
      <PointData>
        <DataArray type="Float32" Name="DISPLACEMENT" NumberOfComponents="3" ComponentName0="X-DISPLACEMENT" ComponentName1="Y-DISPLACEMENT" ComponentName2="Z-DISPLACEMENT" format="ascii" RangeMin="0" RangeMax="712.961563">
          0 0 0 0 0 0
          4.2851376534 -2.5244259834 -2.0155775547 0 0 0
          2.9997837543 -1.4325271845 -1.6900377274 0 0 0
          3.8703145981 -2.7288811207 -0.80936717987 2.5926642418 -1.5988204479 -0.69032514095
          0 0 0 7.7505540848 -4.2184944153 -2.1476128101
          0 0 0 7.5930957794 -4.4808320999 -1.113994956
          6.0522193909 -3.3024373055 -1.9048597813 0 0 0
          0 0 0 3.8741569519 -2.8119747639 1.5036212275e-08
          2.4005172253 -0.92123359442 -1.4524567127 2.5791285038 -1.6383482218 -9.7988372971e-09
          5.8935251236 -3.503891468 -0.97266918421 2.056242466 -1.0721122026 -0.59151899815
          7.4983873367 -4.5577244759 -5.2817906493e-08 4.7710294724 -2.5248804092 -1.6355074644
          0 0 0 5.8063631058 -3.5774440765 -8.8986674029e-08
          4.6267552376 -2.7139234543 -0.84107196331 0 0 0
          11.077703476 -6.2861633301 -2.1235508919 0 0 0
          2.0442214012 -1.1053438187 -2.083818984e-08 0 0 0
          0 0 0 3.8703145981 -2.7288811207 0.80936717987
          9.0243082047 -5.3444957733 -1.8722085953 11.065765381 -6.4944400787 -1.0847122669
          1.8967723846 -0.62394988537 -1.1847982407 2.5926640034 -1.5988204479 0.69032508135
          9.0177965164 -5.5419588089 -0.95444089174 1.6107457876 -0.77817505598 -0.48655983806
          4.5480499268 -2.7733132839 -1.0858823174e-07 7.5930957794 -4.4808320999 1.1139948368
          0 0 0 0 0 0
          3.7538504601 -2.0013549328 -1.3546304703 7.2600498199 -4.5438761711 -1.6223483086
          11.033793449 -6.573656559 -1.8573300054e-07 5.8935251236 -3.503891468 0.97266900539
          7.2463440895 -4.7391066551 -0.82781654596 2.0562422276 -1.0721122026 0.59151893854
          8.9883766174 -5.61165905 -2.2805241429e-07 3.6294543743 -2.195400238 -0.69637286663
          1.6008580923 -0.80796998739 -2.7067667219e-08 0 0 0
          14.391326904 -8.6477108002 -2.0299954414 0 0 0
          11.969435692 -7.721619606 -1.7897815704 4.6267552376 -2.7139234543 0.84107172489
          14.427922249 -8.8341856003 -1.0259126425 4.2851371765 -2.524425745 2.0155773163
          0 0 0 0 0 0
          3.5643641949 -2.2525532246 -1.1876990413e-07 7.2190999985 -4.8036494255 -2.5266427883e-07
          1.4394019842 -0.43299970031 -0.91034895182 12.007165909 -7.9070382118 -0.90305316448
          2.9997835159 -1.4325271845 1.6900376081 5.7220168114 -3.9173417091 -1.3487311602
          0 0 0 11.065765381 -6.4944400787 1.0847119093
          1.2153574228 -0.59082788229 -0.37394344807 5.7057671547 -4.1188750267 -0.68979638815
          9.0177955627 -5.5419583321 0.95444041491 1.6107456684 -0.77817499638 0.48655977845
          9.7689723969 -6.9197974205 -1.547868371 2.8353879452 -1.6534824371 -1.0535744429
          14.4268713 -8.8992757797 -3.9127590412e-07 7.7505536079 -4.2184944153 2.1476128101
          0 0 0 0 0 0
          9.7998285294 -7.1085000038 -0.78173780441 6.052218914 -3.302437067 1.9048595428
          12.009195328 -7.9714975357 -4.3357209734e-07 2.7323644161 -1.8529853821 -0.54101157188
          2.4005169868 -0.92123359442 1.4524565935 1.2068706751 -0.62094819546 -2.8857122913e-08
          5.6808590889 -4.1818184853 -2.642882464e-07 7.2463440895 -4.7391066551 0.82781600952
          3.6294541359 -2.195400238 0.69637256861 9.7997894287 -7.1721224785 -4.5690339334e-07
          4.7710294724 -2.5248804092 1.6355071068 2.6805295944 -1.9098893404 -1.2123868487e-07
          7.7579288483 -6.2700819969 -1.2927488089 14.427922249 -8.8341856003 1.0259119272
          11.077702522 -6.2861633301 2.123550415 0 0 0
          17.652355194 -11.362467766 -1.9552327394 0 0 0
          0 0 0 4.3212456703 -3.4746675491 -1.0607477427
          7.7799315453 -6.4645719528 -0.65341711044 17.69408989 -11.537862778 -0.98006266356
          14.854887962 -10.453749657 -1.7207930088 12.007164955 -7.9070382118 0.90305227041
          0.99464529753 -0.30838182569 -0.63041400909 0 0 0
          9.0243082047 -5.3444957733 1.8722081184 1.8967722654 -0.62394988537 1.1847981215
          4.3019843102 -3.681499958 -0.54182332754 1.2153573036 -0.59082788229 0.37394335866
          0.83332926035 -0.46695792675 -0.25947237015 5.7057671547 -4.1188750267 0.68979585171
          14.896181107 -10.631538391 -0.86256492138 9.7998285294 -7.1085000038 0.78173685074
          7.7783517838 -6.5283370018 -4.6559284783e-07 17.704072952 -11.59749794 -6.7839260964e-07
          1.9528410435 -1.4386000633 -0.74432504177 2.7323641777 -1.8529853821 0.54101133347
          0 0 0 12.242542267 -9.6669158936 -1.4861421585
          3.7538502216 -2.0013549328 1.3546302319 7.2600488663 -4.5438756943 1.6223477125
          4.2808303833 -3.7444400787 -2.6537520625e-07 14.907226562 -10.691679001 -7.148386203e-07
          0.82479029894 -0.49822109938 -2.5889796973e-08 1.8720837831 -1.6371299028 -0.38122433424
          12.278102875 -9.8478603363 -0.74484592676 14.391325951 -8.6477108002 2.0299947262
          0 0 0 5.8772873878 -5.7842521667 -1.0252107382
          11.969434738 -7.7216191292 1.7897806168 1.8341141939 -1.6924394369 -1.1625880347e-07
          5.8892011642 -5.9829001427 -0.5178681016 12.287313461 -9.9089593887 -7.3126142297e-07
          1.439401865 -0.43299970031 0.91034883261 7.7799310684 -6.4645719528 0.65341615677
          9.7899513245 -9.0176296234 -1.2434399128 17.694087982 -11.537862778 0.98006129265
          2.9719557762 -3.1945655346 -0.76382702589 5.7220158577 -3.9173417091 1.3487305641
          0 0 0 4.3019838333 -3.681499958 0.5418227911
          9.8175315857 -9.2029018402 -0.62349355221 0.83332914114 -0.46695795655 0.25947231054
          2.9499201775 -3.3997182846 -0.38807755709 14.896180153 -10.631538391 0.86256349087
          9.7689714432 -6.9197969437 1.5478674173 2.8353874683 -1.6534824371 1.0535742044
          20.842128754 -14.440592766 -1.8982391357 0 0 0
          5.8862586021 -6.04662323 -4.6222868377e-07 17.668813705 -13.553480148 -1.6683497429
          20.878658295 -14.611527443 -0.94883000851 0 0 0
          0.52194750309 -0.23509190977 -0.35794070363 17.704330444 -13.726016998 -0.83437389135
          9.8241634369 -9.2645168304 -7.3202926387e-07 0.43775179982 -0.39173650742 -0.15069575608
          1.8720835447 -1.6371299028 0.38122409582 2.9331231117 -3.4603743553 -2.5660028768e-07
          12.278101921 -9.8478603363 0.74484443665 14.659373283 -12.784516335 -1.4396367073
          1.0393821001 -1.3405902386 -0.44000211358 20.889842987 -14.668524742 -1.0514610267e-06
          0 0 0 0.98856890202 -1.5339766741 -0.22167366743
          14.69022274 -12.959082603 -0.71968823671 17.715911865 -13.783816338 -1.0758307099e-06
          0.45075625181 -0.42417955399 -1.7575709776e-08 7.7579278946 -6.2700819969 1.292747736
          7.4547891617 -8.5181827545 -0.99313354492 17.652355194 -11.362467766 1.9552311897
          0 0 0 4.0591568947 -5.461160183 -0.75182753801
          5.8892006874 -5.9829001427 0.51786714792 4.3212451935 -3.4746675491 1.0607471466
          14.854887009 -10.453749657 1.7207914591 0.99464511871 -0.30838185549 0.63041388988
          4.0595750809 -5.6579608917 -0.37822055817 7.4724240303 -8.7060480118 -0.49761727452
          9.8175315857 -9.2029018402 0.62349206209 2.949919939 -3.3997182846 0.38807702065
          14.700257301 -13.017776489 -1.0791824252e-06 0.97193843126 -1.5932902098 -1.0210650458e-07
          11.789503098 -12.144701004 -1.2062519789 1.6108201742 -3.0667691231 -0.46939322352
          1.9528405666 -1.4386000633 0.74432468414 20.878656387 -14.611527443 0.94882786274
          12.242541313 -9.6669158936 1.4861406088 0 0 0
          7.4762964249 -8.7676315308 -7.181423598e-07 4.0550556183 -5.7198266983 -4.4596362159e-07
          11.813878059 -12.321920395 -0.60306453705 17.704330444 -13.726016998 0.83437174559
          1.580273509 -3.2567586899 -0.23648650944 0.43775168061 -0.39173653722 0.15069569647
          5.8772864342 -5.7842521667 1.0252097845 11.821671486 -12.381037712 -1.0653392337e-06
          14.690221786 -12.959082603 0.71968609095 0.9885686636 -1.5339766741 0.22167344391
          1.5623044968 -3.3120892048 -2.3586048314e-07 23.956142426 -17.886062622 -1.8512016535
          0 0 0 23.987751007 -18.053768158 -0.92476648092
          9.7899494171 -9.0176296234 1.2434383631 20.411640167 -17.020261765 -1.6256610155
          2.971955061 -3.1945655346 0.76382642984 5.1830625534 -8.1721525192 -0.73922413588
          0.02158707194 -0.28121322393 -0.096765935421 4.059574604 -5.6579608917 0.37821963429
          7.4724235535 -8.7060480118 0.49761584401 0 0 0
          20.442144394 -17.188621521 -0.81272083521 5.1895909309 -8.3573579788 -0.36933979392
          -0.032388936728 -0.43939471245 -0.04568696022 9.0248394012 -11.643476486 -0.96828246117
          2.232612133 -5.293138504 -0.48172709346 20.842126846 -14.440592766 1.89823699
          0 0 0 17.668811798 -13.553480148 1.6683475971
          23.997714996 -18.109361649 -1.5154863604e-06 2.2204377651 -5.4767808914 -0.24290442467
          9.0412807465 -11.821919441 -0.48373407125 0.52194726467 -0.23509198427 0.35794058442
          17.017406464 -16.26925087 -1.4025269747 0.033165492117 -1.3861159086 -0.16656213999
          0 0 0 11.813877106 -12.321920395 0.60306233168
          1.5802732706 -3.2567586899 0.2364860177 20.452384949 -17.244773865 -1.5230372128e-06
          5.1904258728 -8.4169664383 -6.8997746894e-07 17.043727875 -16.438510895 -0.70079392195
          -0.016394061968 -1.5572568178 -0.084087088704 -0.037821974605 -0.48782807589 -1.055869947e-09
          14.659371376 -12.784516335 1.4396344423 1.0393817425 -1.3405903578 0.44000184536
          9.0464496613 -11.880749702 -1.036070671e-06 2.2135460377 -5.5347561836 -4.1549628804e-07
          7.4547877312 -8.5181827545 0.99313205481 17.052694321 -16.495277405 -1.5073737814e-06
          -0.034873560071 -1.6149485111 -7.5317288406e-08 4.059155941 -5.461160183 0.75182658434
          23.987751007 -18.053768158 0.92476344109 13.749043465 -15.640823364 -1.1765836477
          0 0 0 0.12835428119 -3.0803735256 -0.21375776827
          13.770009041 -15.811551094 -0.58786541224 20.442144394 -17.188621521 0.81271773577
          -0.032389055938 -0.43939477205 0.045686941594 5.1895904541 -8.3573579788 0.36933839321
          0.092153228819 -3.2424633503 -0.10902749002 11.789502144 -12.144701004 1.2062497139
          6.3229928017 -11.285479546 -0.72848421335 9.0412797928 -11.821919441 0.48373198509
          1.6108195782 -3.0667693615 0.46939268708 2.2204372883 -5.4767808914 0.2429035753
          2.9151329994 -7.9749341011 -0.4898647666 6.3307237625 -11.460774422 -0.3629848659
          13.777107239 -15.868449211 -1.4733471971e-06 17.043727875 -16.438510895 0.70079088211
          -0.016394287348 -1.557256937 0.084086917341 2.9108815193 -8.1481075287 -0.24445949495
          0.075181126595 -3.2919850349 -1.9863418288e-07 26.996831894 -21.694850922 -1.8086701632
          0 0 0 -0.38689777255 -0.55175942183 0.082551762462
          6.3331079483 -11.517580986 -9.9057831449e-07 10.576880455 -15.142045021 -0.94778829813
          23.088279724 -20.849237442 -1.5878440142 23.956140518 -17.886062622 1.851198554
          0 0 0 0 0 0
          2.9092023373 -8.2038831711 -6.4499391783e-07 0.31256636977 -5.2637257576 -0.24569067359
          27.0253582 -21.85921669 -0.90357249975 10.591586113 -15.313091278 -0.4731540978
          23.115736008 -21.013641357 -0.79390567541 20.41163826 -17.020261765 1.6256577969
          -0.43995463848 -0.67268007994 0.03665882349 5.1830611229 -8.1721534729 0.73922270536
          0.021586855873 -0.28121331334 0.096765846014 0.29455173016 -5.4238581657 -0.12430125475
          13.770008087 -15.811551094 0.587862432 0.092152908444 -3.2424635887 0.10902708024
          19.320451736 -20.115030289 -1.3701386452 9.0248374939 -11.643476486 0.9682803154
          2.2326114178 -5.2931389809 0.48172619939 0 0 0
          -0.79869747162 -1.6633996964 -0.0031025749631 27.034114838 -21.913604736 -2.0718591713e-06
          -0.48321607709 -0.72773116827 2.2703527947e-08 10.596531868 -15.369484901 -1.4220555613e-06
          19.343955994 -20.279624939 -0.68466871977 17.017404556 -16.269252777 1.402523756
          23.124824524 -21.068395615 -2.0563832095e-06 0.033165059984 -1.386116147 0.16656191647
          0.28808495402 -5.4770584106 -3.6615088561e-07 -0.84622097015 -1.783506155 0.006678219419
          6.3307228088 -11.460774422 0.36298286915 2.9108810425 -8.1481084824 0.24445819855
          3.6383328438 -11.067679405 -0.49338239431 19.351917267 -20.334749222 -2.0181405489e-06
          -0.86292129755 -1.8323829174 -3.7927435415e-08 3.6376211643 -11.232020378 -0.24550922215
          15.669194221 -19.497941971 -1.150667429 0 0 0
          -1.0814847946 -3.3094081879 -0.057781238109 27.025356293 -21.85921669 0.90356832743
          -0.43995475769 -0.67268019915 -0.036658801138 10.591586113 -15.313091278 0.47315123677
          15.688000679 -19.663269043 -0.57492798567 13.749041557 -15.640823364 1.1765806675
          23.115736008 -21.013641357 0.79390156269 7.4665212631 -14.777227402 -0.71808427572
          0.58911114931 -7.9095673561 -0.26780170202 0.12835365534 -3.080373764 0.21375730634
          -1.1101019382 -3.4179432392 -0.019493017346 0.29455131292 -5.4238586426 0.12430050224
          7.4744553566 -14.944829941 -0.35753297806 0.57844614983 -8.0627765656 -0.13324098289
          3.6375119686 -11.28531456 -9.2697058562e-07 6.3229913712 -11.285480499 0.72848218679
          19.343954086 -20.279624939 0.68466466665 2.9151320457 -7.9749345779 0.48986342549
          15.694358826 -19.71830368 -1.9584788333e-06 -0.84622120857 -1.7835062742 -0.0066783153452
          -1.1190595627 -3.4552097321 -1.4935939419e-07 7.4770522118 -14.999099731 -1.354589017e-06
          0.57543259859 -8.1146650314 -5.7995964653e-07 -1.2377271652 -5.4264359474 -0.086927898228
          12.108003616 -19.003044128 -0.92920815945 26.996828079 -21.694850922 1.8086658716
          0 0 0 3.6376204491 -11.232020378 0.2455073595
          -0.38689798117 -0.55175954103 -0.082551822066 -1.2585893869 -5.5411038399 -0.03526827693
          10.576878548 -15.142045021 0.9477853775 23.088277817 -20.849237442 1.5878398418
          12.121562004 -19.168170929 -0.4638684392 29.968008041 -25.860002518 -1.768475771
          0 0 0 0.31256556511 -5.2637262344 0.24568988383
          29.994678497 -26.020757675 -0.88359850645 -0.19507758319 -1.0129830837 0.044982671738
          25.703609467 -25.03335762 -1.5526123047 15.687998772 -19.663269043 0.57492405176
          0 0 0 -1.1101022959 -3.4179434776 0.019492702559
          25.729259491 -25.193855286 -0.77639347315 -0.20870241523 -1.0348719358 0.037689119577
          7.4744544029 -14.944829941 0.35753026605 0.57844561338 -8.0627765656 0.1332398057
          19.320447922 -20.115030289 1.3701345921 -1.2673213482 -5.5822019577 -3.0450689792e-07
          12.126116753 -19.22253418 -1.8817787577e-06 -0.79869788885 -1.6633999348 0.0031024161726
          4.3845696449 -14.546170235 -0.49280524254 -0.58683210611 -2.2167992592 0.031295482069
          21.572721481 -24.314874649 -1.3402305841 0.92587065697 -10.97640419 -0.28214555979
          30.002653122 -26.073928833 -2.723430498e-06 0 0 0
          4.3857488632 -14.703304291 -0.24511374533 25.7376194 -25.247270584 -2.6823847747e-06
          -0.222915411 -1.0658433437 2.7213408416e-08 21.594577789 -24.475160599 -0.66980278492
          -0.63151192665 -2.2509782314 0.027868565172 0.91874182224 -11.122878075 -0.14033979177
          3.6383314133 -11.067680359 0.49338048697 4.3860287666 -14.754323959 -1.2694903262e-06
          -1.2986212969 -8.0111560822 -0.10769254714 -1.2585898638 -5.5411043167 0.035267651081
          8.6074962616 -18.633768082 -0.70722997189 21.601903915 -24.528804779 -2.6160792004e-06
          15.66919136 -19.497941971 1.1506634951 12.12156105 -19.168170929 0.4638646543
          0.91661411524 -11.173016548 -8.4255987076e-07 -0.66631299257 -2.2769880295 -1.3628943307e-08
          -1.0814855099 -3.3094084263 0.05778086558 29.99467659 -26.020757675 0.88359302282
          17.551984787 -23.708833694 -1.1266807318 -1.3148083687 -8.1288280487 -0.047969926149
          -1.0647009611 -3.7826135159 0.015995096415 8.6155319214 -18.795303345 -0.35210117698
          7.4665198326 -14.777228355 0.7180814743 0.58911013603 -7.9095678329 0.26780048013
          0 0 0 -1.1022959948 -3.81463027 0.011496668682
          25.729257584 -25.193855286 0.77638810873 -0.20870251954 -1.0348720551 -0.0376890935
          17.569532394 -23.869409561 -0.56299334764 -1.3210420609 -8.1728878021 -5.0363757964e-07
          8.6181898117 -18.847480774 -1.7887995227e-06 4.3857479095 -14.703304291 0.24511118233
          17.575410843 -23.922821045 -2.5293318231e-06 -1.1308399439 -3.82512784 -1.0737347367e-07
          21.594577789 -24.475160599 0.66979753971 -0.63151216507 -2.2509784698 -0.027868626639
          0.91874116659 -11.122878075 0.14033809304 -1.2377279997 -5.4264364243 0.086927220225
          12.108001709 -19.003044128 0.92920428514 13.617260933 -23.218919754 -0.91168439388
          29.968006134 -25.860002518 1.7684702873 0 0 0
          -1.5016564131 -5.7867159843 0.0067039867863 -0.19507777691 -1.0129832029 -0.044982742518
          25.703605652 -25.03335762 1.5526069403 -1.3148088455 -8.1288280487 0.047968901694
          8.6155309677 -18.795305252 0.3520976007 13.630129814 -23.378952026 -0.45513764024
          1.3005133867 -14.437562943 -0.2910335362 -1.5213210583 -5.8434267044 0.0050178235397
          -1.1022964716 -3.81463027 -0.011496915482 17.569530487 -23.869409561 0.56298828125
          1.2961148024 -14.577661514 -0.14493948221 5.1398472786 -18.392427444 -0.48930183053
          -1.2817714214 -11.039919853 -0.12910549343 32.873199463 -30.373559952 -1.7299357653
          0 0 0 28.261369705 -29.564910889 -1.519071579
          4.3845677376 -14.546171188 0.49280261993 -0.58683258295 -2.2167994976 -0.031295645982
          21.572719574 -24.314874649 1.3402253389 -1.2949384451 -11.153873444 -0.059155914932
          5.141679287 -18.543498993 -0.24377459288 0.92586946487 -10.97640419 0.28214380145
          32.898609161 -30.530620575 -0.86440110207 0 0 0
          -1.5336550474 -5.8675107956 -2.4776983309e-07 13.634446144 -23.431581497 -2.4233397653e-06
          0.0021569910459 -1.1711746454 -0.0016329826321 28.285812378 -29.721572876 -0.75967550278
          0.0017475133063 -1.17210114 -0.00071160856169 1.2946221828 -14.626069069 -1.1609738522e-06
          23.777334213 -28.861391068 -1.3118588924 -1.2987535 -11.197891235 -7.5034108704e-07
          5.1418838501 -18.592508316 -1.67621738e-06 32.906108856 -30.582557678 -3.4693864563e-06
          0 0 0 0.0038835331798 -2.4510986805 -0.0020850282162
          23.798145294 -29.017614365 -0.6556636095 28.293716431 -29.773691177 -3.3985907066e-06
          -1.2986222506 -8.0111570358 0.10769146681 8.6074943542 -18.633768082 0.707226336
          0.0017477173824 -1.1899522543 1.501185487e-08 0.0036150603555 -2.4567902088 -0.0010989110451
          17.55198288 -23.708833694 1.1266756058 -1.0647016764 -3.7826135159 -0.01599544473
          -1.838539362 -8.2791671753 -0.0080324169248 9.7425508499 -22.84781456 -0.696418643
          -1.5213216543 -5.8434267044 -0.0050183506683 13.63012886 -23.378952026 0.45513275266
          -1.8508012295 -8.3496379852 -0.00062629114836 9.7504758835 -23.00415802 -0.34684687853
          1.2961140871 -14.577662468 0.14493714273 23.805082321 -29.069881439 -3.3032883948e-06
          0.0035267325584 -2.4735605717 -3.1587880756e-08 19.398857117 -28.266340256 -1.1038665771
          -1.2949390411 -11.153873444 0.059154402465 5.1416783333 -18.543498993 0.24377122521
          32.898609161 -30.530620575 0.86439412832 0 0 0
          0.0054247113876 -4.0296406746 -0.002414310351 19.415641785 -28.422557831 -0.55161798
          28.285810471 -29.721572876 0.75966864824 0.0052365516312 -4.0367708206 -0.0012457607081
          -1.8530730009 -8.3815851212 -4.3625490775e-07 9.7531280518 -23.054698944 -2.2996864573e-06
          0.0017474227352 -1.17210114 0.00071161362575 23.798145294 -29.017614365 0.65565699339
          19.421243668 -28.474504471 -3.1866898098e-06 0.0051904763095 -4.0473146439 -1.2213324396e-07
          13.617259026 -23.218919754 0.9116794467 1.7010917664 -18.269441605 -0.29633784294
          0.0036148668732 -2.4567902088 0.00109881768 -1.5016573668 -5.7867159843 -0.0067046121694
          -1.2073119879 -14.475271225 -0.14896897972 1.6987354755 -18.404119492 -0.14776147902
          1.3005119562 -14.437563896 0.29103115201 -1.2166252136 -14.583971024 -0.069424584508
          -1.8508019447 -8.3496379852 0.00062539544888 9.7504749298 -23.00415802 0.34684225917
          5.1398458481 -18.392427444 0.48929840326 -1.2817726135 -11.039920807 0.1291039288
          0.0067302905954 -6.0193881989 -0.0028082125355 15.10377121 -27.782552719 -0.89485609531
          32.873195648 -30.373559952 1.7299287319 0 0 0
          28.261367798 -29.564912796 1.5190646648 0.0065124211833 -6.0407648087 -0.0014065310825
          1.6978948116 -18.450752258 -1.5399181166e-06 -2.0585763454 -11.248948097 -0.03833578527
          5.8998055458 -22.597478867 -0.48593062162 15.116246223 -27.937961578 -0.446747154
          0.0021568145603 -1.1711746454 0.0016329126665 -1.2191470861 -14.627919197 -1.0435654758e-06
          19.415641785 -28.422557831 0.5516115427 0.005236253608 -4.0367708206 0.0012454863172
          5.9024777412 -22.743862152 -0.24235132337 -2.0720355511 -11.318552971 -0.011195508763
          23.777332306 -28.861392975 1.3118520975 0.0064756623469 -6.0590877533 -2.5089738642e-07
          15.120424271 -27.989063263 -3.0507783322e-06 0.0038831715938 -2.4510986805 0.0020848582499
          5.9033727646 -22.791698456 -2.1560563255e-06 35.71534729 -35.227500916 -1.6928424835
          0 0 0 -2.0727033615 -11.347869873 -6.7491839673e-07
          35.739776611 -35.380939484 -0.84588998556 0 0 0
          1.6987346411 -18.404121399 0.14775837958 30.764322281 -34.436096191 -1.486852169
          -1.838540554 -8.2791671753 0.0080314399675 9.7425489426 -22.84781456 0.69641393423
          0.19917842746 -1.0133609772 -0.048123780638 -1.2166259289 -14.583971024 0.069422483444
          30.787836075 -34.589057922 -0.74358540773 0.21208402514 -1.0355904102 -0.038998816162
          19.398855209 -28.266340256 1.1038601398 35.746959686 -35.431667328 -4.3062586883e-06
          0.0065120127983 -6.0407648087 0.0014059958048 25.936374664 -33.74703598 -1.2845888138
          0.59426671267 -2.217846632 -0.035029541701 15.116244316 -27.937961578 0.44674104452
          0 0 0 10.868276596 -27.412239075 -0.68599081039
          0.007707326673 -8.4727745056 -0.0033374447376 0.0054241572507 -4.0296406746 0.0024139538873
          0.6386154294 -2.2525980473 -0.029729362577 25.956451416 -33.899421692 -0.64204889536
          30.795423508 -34.63993454 -4.203914159e-06 5.9024767876 -22.743862152 0.24234698713
          0.0074407397769 -8.5110559464 -0.001634906861 10.876233101 -27.563810349 -0.34175387025
          -2.0720362663 -11.318553925 0.011194149032 0.22630915046 -1.066645503 -1.655005577e-09
          -1.0845005512 -18.279905319 -0.16004304588 25.963129044 -33.950393677 -4.0776008063e-06
          1.7010899782 -18.269441605 0.2963346839 0.67332005501 -2.2787468433 -6.3266611505e-08
          0.0074045592919 -8.5384712219 -4.1296362951e-07 -1.0900133848 -18.385284424 -0.07558657974
          10.878941536 -27.612909317 -2.8962328997e-06 -1.2073134184 -14.475272179 0.14896680415
          35.739776611 -35.380939484 0.84588134289 21.210590363 -33.163036346 -1.0818203688
          -2.1675848961 -14.646798134 -0.074022293091 0 0 0
          1.074935317 -3.7848310471 -0.019941732287 2.1265356541 -22.460165024 -0.30055311322
          1.112257719 -3.8176326752 -0.013450951315 21.226903915 -33.315208435 -0.54060828686
          30.787836075 -34.589057922 0.74357700348 -2.1806335449 -14.721522331 -0.026449382305
          2.1260752678 -22.591035843 -0.14949342608 0.21208395064 -1.0355904102 0.038998793811
          0.0067295306362 -6.0193881989 0.0028075873852 15.103768349 -27.782554626 0.89484989643
          -1.0922665596 -18.428188324 -1.3988012597e-06 -2.0585775375 -11.248948097 0.038334395736
          5.8998036385 -22.597480774 0.48592621088 21.232337952 -33.365802765 -3.9295937313e-06
          25.956449509 -33.899421692 0.64204072952 -2.1848363876 -14.756363869 -9.4109157089e-07
          0.63861525059 -2.2525980473 0.029729217291 1.1406792402 -3.8282930851 -1.6175646067e-07
          0.0074401972815 -8.5110569 0.0016340414295 10.876232147 -27.563812256 0.34174802899
          2.1263859272 -22.636573792 -1.9941226128e-06 6.6666316986 -27.156288147 -0.48277947307
          0.0083583910018 -11.41544342 -0.0039618960582 6.6700043678 -27.298381805 -0.24069435894
          0.0080564785749 -11.452722549 -0.001918753027 35.715343475 -35.227500916 1.6928337812
          0 0 0 -1.0900142193 -18.385286331 0.075583763421
          1.5140413046 -5.7905788422 -0.010949244723 16.566534042 -32.686260223 -0.87836319208
          1.533419013 -5.8482251167 -0.0071202628314 30.764320374 -34.436096191 1.4868437052
          0.19917826355 -1.0133609772 0.048123691231 16.578866959 -32.837413788 -0.43852972984
          21.226902008 -33.315208435 0.54060041904 -2.1806342602 -14.721522331 0.026447476819
          1.1122574806 -3.8176326752 0.01345060952 2.1260743141 -22.591035843 0.14948941767
          6.6712694168 -27.344987869 -2.7231819786e-06 0.0080082416534 -11.467523575 -6.1313062361e-07
          25.936372757 -33.747039795 1.2845805883 0.59426641464 -2.217846632 0.03502933681
          10.868274689 -27.412239075 0.68598496914 1.5456562042 -5.8724384308 -2.8852332434e-07
          0.0077063278295 -8.4727754593 0.0033364642877 16.582990646 -32.887123108 -3.7620816329e-06
          38.496944427 -40.414031982 -1.6570948362 0 0 0
          -1.0845022202 -18.279905319 0.16004015505 6.6700034142 -27.298383713 0.24068889022
          0 0 0 33.214584351 -39.639251709 -1.4557518959
          -2.1942303181 -18.395553589 -0.084245599806 0.0080557381734 -11.452722549 0.0019174773479
          0.39026552439 -0.55285453796 -0.084762409329 -0.91964483261 -22.443475723 -0.16476145387
          38.52053833 -40.56401062 -0.82803708315 21.210588455 -33.163036346 1.0818123817
          33.237323761 -39.788711548 -0.72804135084 0.44316250086 -0.67423850298 -0.037541624159
          -2.1675863266 -14.646798134 0.074020303786 -2.2027292252 -18.471300125 -0.033815339208
          1.0749348402 -3.7848312855 0.019941339269 11.982539177 -32.318260193 -0.67541158199
          1.5334186554 -5.8482251167 0.007119663991 2.1265337467 -22.460165024 0.3005490005
          1.8525128365 -8.2849569321 0.0033236942254 16.578865051 -32.837413788 0.43852216005
          -0.92277914286 -22.547348022 -0.078406795859 1.8644410372 -8.3565444946 -0.0016983877867
          11.990750313 -32.465518951 -0.33656448126 28.051269531 -38.964298248 -1.2581597567
          38.527484894 -40.613586426 -5.2312389016e-06 0.80482256413 -1.6656769514 0.00086205953266
          0 0 0 28.070793152 -39.1130867 -0.62884396315
          0.85228204727 -1.7863842249 -0.0077499472536 33.244659424 -39.838413239 -5.0963121794e-06
          2.5774028301 -27.007108688 -0.30344626307 -2.2088937759 -18.505823135 -1.2733198673e-06
          -0.92470228672 -22.588846207 -1.8294712163e-06 0.0086294626817 -14.794061661 -0.0045807776041
          0.48673063517 -0.72936844826 -2.3355260836e-08 2.577981472 -27.134584427 -0.15050044656
          11.993540764 -32.51329422 -3.5763225696e-06 0.0083322254941 -14.857507706 -0.0022202869877
          1.8666321039 -8.3886003494 -4.4228934826e-07 6.6666293144 -27.156288147 0.48277392983
          28.077285767 -39.162849426 -4.9378372751e-06 0.00835705176 -11.41544342 0.0039604743943
          0.86896598339 -1.8353760242 -8.9113811441e-08 22.987545013 -38.391441345 -1.0602570772
          38.520534515 -40.56401062 0.82802659273 2.5786709785 -27.178878784 -2.5346432722e-06
          1.0897370577 -3.3134608269 0.055596958846 1.5140407085 -5.790579319 0.010948589072
          0.008289960213 -14.886133194 -8.7737385002e-07 16.566532135 -32.686260223 0.87835556269
          0 0 0 23.003578186 -38.539867401 -0.52983427048
          1.1182507277 -3.4226636887 0.018427720293 33.237319946 -39.788711548 0.72803115845
          -2.2027299404 -18.471300125 0.033812761307 -0.92278015614 -22.54734993 0.078403107822
          0.44316244125 -0.67423850298 0.037541568279 11.990749359 -32.465518951 0.3365572989
          1.8644405603 -8.3565444946 0.0016974713653 28.070791245 -39.1130867 0.62883406878
          23.008918762 -38.589214325 -4.756839644e-06 7.4357743263 -32.059123993 -0.47838014364
          2.0735769272 -11.256839752 0.033013712615 1.127129674 -3.4600768089 -1.8169248506e-07
          0.85228192806 -1.7863843441 0.0077497549355 2.086648941 -11.327802658 0.0085707046092
          2.5779802799 -27.134586334 0.15049535036 7.4398913383 -32.197402954 -0.2385866046
          0.0083312662318 -14.857507706 0.0022184839472 18.004693985 -37.922355652 -0.86191499233
          38.496940613 -40.414035797 1.6570842266 0 0 0
          1.247584939 -5.4327569008 0.084717534482 18.017068863 -38.069610596 -0.43032762408
          33.214580536 -39.639251709 1.4557415247 1.2683339119 -5.5481872559 0.034176751971