<?xml version="1.0"?>
<VTKFile type="UnstructuredGrid" version="0.1" byte_order="LittleEndian" header_type="UInt32" compressor="vtkZLibDataCompressor">
  <UnstructuredGrid>
    <Piece NumberOfPoints="6405" NumberOfCells="4800">
      <PointData>
        <DataArray type="Float32" Name="DISPLACEMENT" NumberOfComponents="3" ComponentName0="X-DISPLACEMENT" ComponentName1="Y-DISPLACEMENT" ComponentName2="Z-DISPLACEMENT" format="ascii" RangeMin="0" RangeMax="343.15357624">
          0 0 0 0 0 0
          2.7905733585 -1.6240298748 -1.2870670557 0 0 0
          1.6212621927 -0.92219793797 -0.87519645691 0 0 0
          2.5672194958 -1.8653130531 -0.50679343939 1.4101471901 -1.1292301416 -0.35739678144
          0 0 0 5.0751538277 -3.3535823822 -1.313780427
          0 0 0 5.0137557983 -3.6365122795 -0.66825294495
          3.2513947487 -2.8079314232 -0.96947795153 0 0 0
          0 0 0 2.5841469765 -1.9349582195 -2.2938520416e-08
          0.89082574844 -0.60129261017 -0.53236818314 1.4016475677 -1.1669909954 1.3698725709e-08
          3.1833117008 -3.0450563431 -0.49176803231 0.77067118883 -0.81260693073 -0.22396564484
          4.9612445831 -3.7133569717 9.5306929015e-10 1.814499855 -2.4440994263 -0.60010004044
          0 0 0 3.1408414841 -3.1144058704 6.2123838518e-08
          1.7286212444 -2.6580860615 -0.30414256454 0 0 0
          7.1099376678 -5.7931246758 -1.2059304714 0 0 0
          0.77369832993 -0.85516726971 4.7766700817e-08 0 0 0
          0 0 0 2.5672197342 -1.8653131723 0.50679343939
          4.7717952728 -5.2837929726 -0.92454230785 7.1343874931 -6.0027422905 -0.60892724991
          0.057763639838 -0.57234036922 -0.14669336379 1.4101473093 -1.1292301416 0.35739681125
          4.7840547562 -5.4815645218 -0.46865648031 -0.024730028585 -0.80746358633 -0.079263024032
          1.6825110912 -2.7130453587 1.2332260724e-07 5.0137557983 -3.6365122795 0.66825294495
          0 0 0 0 0 0
          0.16971936822 -2.3120236397 -0.24401070178 2.7534360886 -4.9358282089 -0.64215147495
          7.1123576164 -6.0718255043 5.2934375105e-08 3.1833117008 -3.0450563431 0.49176815152
          2.7043106556 -5.1175689697 -0.32900184393 0.77067124844 -0.81260699034 0.22396574914
          4.7700586319 -5.5414047241 1.3163808887e-07 0.066061906517 -2.5164871216 -0.13921554387
          -0.059629186988 -0.86793124676 1.0200054135e-07 0 0 0
          8.9182453156 -8.6695957184 -1.0415469408 0 0 0
          6.2014131546 -8.2261791229 -0.85930329561 1.7286212444 -2.6580860615 0.30414280295
          8.9683294296 -8.807009697 -0.52480918169 2.7905733585 -1.624029994 1.2870670557
          0 0 0 0 0 0
          0.020791528746 -2.5665202141 1.7463023028e-07 2.6829564571 -5.170050621 2.0127843925e-07
          -0.53119421005 -0.80071610212 0.089651957154 6.2358717918 -8.357919693 -0.43124401569
          1.6212623119 -0.92219805717 0.87519651651 0.4940995574 -4.7549738884 -0.39566755295
          0 0 0 7.13438797 -6.0027422905 0.60892736912
          -0.79973775148 -1.020270586 0.002057509264 0.41424259543 -4.9192757607 -0.21136896312
          4.7840547562 -5.4815649986 0.46865674853 -0.024730009958 -0.80746364594 0.079263225198
          3.7620270252 -7.9184436798 -0.68442744017 -0.57065457106 -2.6575546265 -0.43031945825
          8.961640358 -8.8524456024 1.3278690858e-07 5.0751543045 -3.3535826206 1.313780427
          0 0 0 0 0 0
          3.7353966236 -8.0290403366 -0.34499004483 3.2513947487 -2.8079316616 0.96947813034
          6.2382907867 -8.3998088837 2.2186793558e-07 -0.79924958944 -2.6512959003 -0.15903699398
          0.89082592726 -0.60129272938 0.53236830235 -0.95414209366 -1.1163944006 1.1685953183e-07
          0.39594569802 -4.969004631 2.7004949743e-07 2.704310894 -5.1175694466 0.32900226116
          0.066061943769 -2.5164871216 0.13921590149 3.7285382748 -8.0657043457 3.0422634723e-07
          1.8145000935 -2.4440996647 0.60010027885 -0.84991830587 -2.6825816631 2.1803049322e-07
          1.1567853689 -7.7338404655 -0.57437181473 8.9683294296 -8.807009697 0.52480942011
          7.1099381447 -5.7931246758 1.2059305906 0 0 0
          10.487765312 -11.801688194 -0.89936429262 0 0 0
          0 0 0 -0.044911623001 -5.4623165131 -0.81261175871
          1.0965051651 -7.8103642464 -0.28244048357 10.537140846 -11.878068924 -0.45184364915
          7.5323486328 -11.408506393 -0.79931479692 6.2358717918 -8.357919693 0.43124446273
          -0.79857760668 -1.0736010075 0.32622924447 0 0 0
          4.7717957497 -5.2837934494 0.92454254627 0.057763773948 -0.57234048843 0.1466935426
          -0.14513847232 -5.3652734756 -0.33105871081 -0.79973775148 -1.0202707052 -0.0020572696812
          -0.91009348631 -1.2205796242 0.12242855877 0.41424271464 -4.9192757607 0.21136951447
          7.570016861 -11.482765198 -0.39889764786 3.735396862 -8.0290403366 0.34499067068
          1.0852774382 -7.8406772614 3.950905807e-07 10.538537979 -11.904494286 2.365133156e-07
          -1.369145751 -3.1258978844 -0.55436784029 -0.79924935102 -2.6512961388 0.15903751552
          0 0 0 4.8098907471 -11.119544029 -0.70680737495
          0.16971953213 -2.3120236397 0.2440110743 2.753436327 -4.9358286858 0.64215189219
          -0.17507618666 -5.3688354492 3.7072689452e-07 7.5779924393 -11.506842613 3.2916497616e-07
          -0.91526418924 -1.2594532967 1.3598754123e-08 -1.5424405336 -3.0227315426 -0.27359327674
          4.8046674728 -11.173847198 -0.35509979725 8.9182462692 -8.6695957184 1.0415471792
          0 0 0 0.4503352046 -8.3906440735 -0.86124259233
          6.2014136314 -8.2261800766 0.85930371284 -1.5753041506 -2.9692463875 3.0354939895e-07
          0.47859096527 -8.382021904 -0.38094332814 4.8049221039 -11.194688797 4.1928424821e-07
          -0.53119403124 -0.80071622133 -0.089651636779 1.0965054035 -7.8103647232 0.28244128823
          2.0371816158 -10.921560287 -0.68039667606 10.537140846 -11.878068924 0.45184412599
          -1.1646376848 -5.9731855392 -0.83072012663 0.49409985542 -4.7549743652 0.3956681788
          0 0 0 -0.1451382488 -5.3652739525 0.33105948567
          2.0061459541 -10.940964699 -0.33287358284 -0.9100934267 -1.2205796242 -0.12242849916
          -1.2006646395 -5.8823547363 -0.44303283095 7.570016861 -11.482765198 0.39889830351
          3.7620272636 -7.9184441566 0.68442809582 -0.57065415382 -2.6575551033 0.4303201139
          11.861906052 -15.032436371 -0.79367130995 0 0 0
          0.51245808601 -8.4492616653 4.6956895972e-07 8.7779436111 -14.672831535 -0.74706554413
          11.903129578 -15.068975449 -0.39829874039 0 0 0
          -0.93244814873 -1.2461369038 0.55076158047 8.812664032 -14.709009171 -0.37221488357
          1.9964230061 -10.95406723 5.2019765917e-07 -0.85204362869 -1.3704488277 0.22011584044
          -1.5424402952 -3.022731781 0.27359396219 -1.2226377726 -5.8245239258 4.5083191935e-07
          4.8046674728 -11.173847198 0.35510063171 5.8809494972 -14.38462162 -0.70425480604
          -2.0931763649 -3.4198646545 -0.15859651566 11.908459663 -15.082278252 3.5602030835e-07
          0 0 0 -2.2604107857 -3.4931492805 -0.17065370083
          5.891951561 -14.406928062 -0.35351336002 8.8220100403 -14.721061707 4.4437123847e-07
          -0.79716080427 -1.401738286 -3.8581180917e-08 1.1567858458 -7.7338409424 0.57437264919
          0.92158412933 -11.325680733 -0.81017255783 10.487765312 -11.801689148 0.89936476946
          0 0 0 -0.78184247017 -8.9298648834 -0.84787815809
          0.47859093547 -8.382021904 0.38094428182 -0.044911153615 -5.4623169899 0.81261253357
          7.5323491096 -11.408506393 0.79931545258 -0.79857736826 -1.0736010075 -0.32622897625
          -0.77562266588 -8.9038305283 -0.43743059039 0.9336194396 -11.278401375 -0.38179725409
          2.0061461926 -10.940964699 0.33287462592 -1.2006642818 -5.8823552132 0.44303375483
          5.8958692551 -14.417110443 5.3589604931e-07 -2.0940258503 -3.4502339363 2.2593519589e-07
          3.0230784416 -14.157575607 -0.70885396004 -2.2092328072 -6.5412902832 -0.94744312763
          -1.3691452742 -3.1258983612 0.55436873436 11.903130531 -15.068975449 0.39829945564
          4.8098912239 -11.119544983 0.70680820942 0 0 0
          0.93208014965 -11.275876999 5.7930560615e-07 -0.76614743471 -8.907418251 5.2477696499e-07
          3.021474123 -14.15763855 -0.34964731336 8.812664032 -14.709009171 0.37221574783
          -2.239030838 -6.4657769203 -0.48022162914 -0.85204344988 -1.3704487085 -0.22011588514
          0.4503352344 -8.3906440735 0.86124360561 3.0185081959 -14.163674355 6.3759921431e-07
          5.891951561 -14.406928062 0.35351443291 -2.2604105473 -3.4931497574 0.17065437138
          -2.2155025005 -6.4555807114 5.076918228e-07 13.101438522 -18.27898407 -0.7234262228
          0 0 0 13.13338089 -18.294933319 -0.36237326264
          2.0371820927 -10.921560287 0.68039774895 9.9557228088 -17.939208984 -0.703096807
          -1.1646369696 -5.9731864929 0.8307210207 -0.41077461839 -11.82642746 -0.84685242176
          -0.86705201864 -1.3331794739 0.59177482128 -0.77562230825 -8.9038305283 0.43743166327
          0.93361955881 -11.278402328 0.38179844618 0 0 0
          9.9850435257 -17.955907822 -0.35017642379 -0.37451666594 -11.780247688 -0.44618949294
          -0.95487892628 -1.5323780775 0.13849341869 1.4543870687 -14.319215775 -0.76997512579
          -1.733340621 -9.6185894012 -0.98629635572 11.861906052 -15.032437325 0.7936720252
          0 0 0 8.7779436111 -14.672832489 0.7470664382
          13.140440941 -18.301063538 4.7456725838e-07 -1.7224849463 -9.5542602539 -0.49058306217
          1.4709633589 -14.286165237 -0.38397547603 -0.93244802952 -1.2461369038 -0.55076152086
          6.9513039589 -17.647315979 -0.68288224936 -2.2347476482 -3.6963608265 0.2528449893
          0 0 0 3.0214743614 -14.15763855 0.34964859486
          -2.2390301228 -6.4657773972 0.48022267222 9.9938163757 -17.961400986 5.5403677379e-07
          -0.33535665274 -11.779375076 6.7665456527e-07 6.97134161 -17.655574799 -0.34182873368
          -2.5783109665 -3.94115448 -0.033218581229 -1.6206396818 -1.9102219343 -1.3875163063e-07
          5.8809499741 -14.384622574 0.70425587893 -2.0931761265 -3.4198653698 0.15859763324
          1.4731715918 -14.288968086 7.2191897971e-07 -1.6930350065 -9.5597753525 6.1996888689e-07
          0.92158436775 -11.325680733 0.81017374992 6.9775953293 -17.659790039 6.4074100692e-07
          -2.7097101212 -3.9389493465 1.3541631461e-07 -0.78184169531 -8.9298648834 0.84787935019
          13.13338089 -18.294933319 0.36237421632 4.0463061333 -17.407978058 -0.69207155704
          0 0 0 -2.7468671799 -7.3540997505 -1.1845934391
          4.0596213341 -17.401298523 -0.34310373664 9.9850435257 -17.955907822 0.35017752647
          -0.9548791647 -1.5323783159 -0.13849361241 -0.37451645732 -11.780247688 0.44619086385
          -2.6486120224 -7.3677010536 -0.57640683651 3.0230789185 -14.157576561 0.70885521173
          -0.060289993882 -14.703741074 -0.83697634935 1.4709635973 -14.286165237 0.38397690654
          -2.2092318535 -6.54129076 0.94744426012 -1.7224844694 -9.5542612076 0.49058434367
          -1.3033794165 -12.50353241 -1.0254815817 0.011369675398 -14.680961609 -0.43442949653
          4.0595712662 -17.40165329 7.3332250849e-07 6.97134161 -17.655574799 0.34183001518
          -2.5783112049 -3.9411551952 0.033219244331 -1.2824010849 -12.428256035 -0.50499206781
          -2.5189743042 -7.4906020164 6.0346457076e-07 14.259277344 -21.514848709 -0.68053245544
          0 0 0 -0.70047599077 -1.2346069813 0.5695849061
          0.091697886586 -14.72492218 7.9218642668e-07 2.0931982994 -17.440608978 -0.72715550661
          11.080842018 -21.186592102 -0.66803747416 13.101439476 -18.27898407 0.72342717648
          0 0 0 0 0 0
          -1.2533298731 -12.433824539 7.3765073694e-07 -2.1621146202 -10.52477932 -1.2105022669
          14.282650948 -21.523679733 -0.34007039666 2.1175189018 -17.405107498 -0.36759379506
          11.103850365 -21.196422577 -0.33261361718 9.9557237625 -17.939210892 0.70309787989
          -0.54908967018 -1.347181201 0.13070677221 -0.41077414155 -11.82642746 0.84685379267
          -0.86705201864 -1.3331794739 -0.59177482128 -2.1541614532 -10.419301987 -0.59453892708
          4.0596213341 -17.401298523 0.34310516715 -2.6486115456 -7.3677015305 0.5764080286
          8.0054264069 -20.890899658 -0.65309911966 1.4543874264 -14.319215775 0.7699764967
          -1.7333396673 -9.6185903549 0.98629766703 0 0 0
          -2.8556630611 -4.9616532326 -1.0005130768 14.289749146 -21.526863098 5.7932817299e-07
          -0.91947716475 -1.926356554 -1.7852677558e-07 2.1276805401 -17.402404785 8.1469863744e-07
          8.0266876221 -20.895719528 -0.32624399662 6.9513044357 -17.647315979 0.68288350105
          11.111310959 -21.19912529 6.4806312139e-07 -2.2347476482 -3.6963615417 -0.25284400582
          -2.1351642609 -10.416460037 7.3407420587e-07 -3.1667568684 -4.8948154449 -0.6404902935
          0.011369703338 -14.680961609 0.43443104625 -1.2824004889 -12.428256989 0.50499361753
          -0.8042756319 -15.452029228 -1.0686407089 8.03307724 -20.897386551 7.2505923754e-07
          -3.2207756042 -4.8390836716 6.5513006575e-07 -0.77154648304 -15.362313271 -0.51655834913
          5.035721302 -20.643939972 -0.65517854691 0 0 0
          -2.5149321556 -8.6182537079 -1.5237549543 14.282650948 -21.523679733 0.34007155895
          -0.54908961058 -1.3471814394 -0.13070708513 2.1175189018 -17.405107498 0.36759543419
          5.0564684868 -20.638446808 -0.32725900412 4.0463066101 -17.407979965 0.69207298756
          11.103850365 -21.196422577 0.33261489868 0.40431141853 -17.722309113 -0.83900225163
          -1.6724665165 -13.416514397 -1.2419887781 -2.7468664646 -7.3541007042 1.1845947504
          -2.3299791813 -8.6379785538 -0.74894922972 -2.154160738 -10.419301987 0.59454041719
          0.46408596635 -17.668077469 -0.42050805688 -1.6500151157 -13.319049835 -0.60950899124
          -0.74281793833 -15.36413002 8.5293089569e-07 -0.060289781541 -14.703742027 0.83697789907
          8.0266876221 -20.895719528 0.32624542713 -1.3033784628 -12.503533363 1.0254832506
          5.0611743927 -20.638671875 8.0446005768e-07 -3.1667566299 -4.8948163986 0.64049178362
          -2.2952795029 -8.6476020813 7.8537499348e-07 0.52586650848 -17.687267303 8.8179831437e-07
          -1.6382935047 -13.306769371 8.4865797589e-07 -1.9691113234 -11.717973709 -1.4297212362
          2.7790617943 -20.613025665 -0.69525462389 14.259277344 -21.514848709 0.68053358793
          0 0 0 -0.7715459466 -15.362313271 0.51656007767
          -0.70047593117 -1.2346069813 -0.56958508492 -1.7994821072 -11.716361046 -0.7002851367
          2.0931985378 -17.440610886 0.72715711594 11.080842018 -21.186592102 0.66803872585
          2.8126122952 -20.57975769 -0.35053777695 15.370770454 -24.745370865 -0.65601700544
          0 0 0 -2.1621136665 -10.524780273 1.2105036974
          15.38699913 -24.754297256 -0.3271933794 -0.81057816744 -2.7347869873 0.20068460703
          12.165923119 -24.424654007 -0.64218831062 5.0564684868 -20.638448715 0.32726061344
          0 0 0 -2.3299789429 -8.6379785538 0.74895071983
          12.182620049 -24.434232712 -0.3196221292 -1.2047715187 -2.8527419567 0.21664968133
          0.46408599615 -17.668079376 0.42050981522 -1.6500146389 -13.319049835 0.60951071978
          8.0054264069 -20.890899658 0.65310049057 -1.7123258114 -11.767816544 8.982685813e-07
          2.8346502781 -20.58200264 8.7579047658e-07 -2.8556628227 -4.9616546631 1.0005147457
          -0.29951813817 -18.418279648 -1.0759017467 -1.8520840406 -6.0367794037 -0.54787302017
          9.0331115723 -24.130243301 -0.62514328957 -1.1414166689 -16.297338486 -1.2424041033
          15.393134117 -24.75699234 6.6033425128e-07 0 0 0
          -0.22440192103 -18.365762711 -0.52343195677 12.188429832 -24.436349869 7.1999215834e-07
          -1.3188246489 -3.039753437 3.5180502778e-07 9.0512294769 -24.135370255 -0.31170254946
          -3.0502793789 -6.025449276 -0.57410216331 -1.1094193459 -16.213153839 -0.60690742731
          -0.80427485704 -15.452030182 1.0686424971 -0.16827429831 -18.393302917 9.4879317203e-07
          -1.5146368742 -14.566145897 -1.3195992708 -1.7994818687 -11.716361046 0.70028698444
          1.0210324526 -20.838554382 -0.83731865883 9.0569725037 -24.136062622 7.8671695292e-07
          5.0357217789 -20.643939972 0.65518009663 2.8126125336 -20.57975769 0.35053953528
          -1.1114711761 -16.175992966 9.8217890354e-07 -3.2785229683 -5.9710717201 9.4492224889e-07
          -2.5149316788 -8.6182546616 1.5237563848 15.38699913 -24.754297256 0.3271946907
          5.9831719398 -23.882328033 -0.62151241302 -1.3938436508 -14.558279991 -0.64933723211
          -2.8959028721 -9.5369739532 -1.2944865227 1.0715641975 -20.776973724 -0.41250452399
          0.40431171656 -17.722309113 0.83900403976 -1.6724655628 -13.41651535 1.2419905663
          0 0 0 -2.8558712006 -9.5555076599 -0.63897162676
          12.182620049 -24.434232712 0.31962355971 -1.2047715187 -2.8527419567 -0.21664896607
          6.0029640198 -23.877101898 -0.31087455153 -1.3664373159 -14.545934677 1.0492930187e-06
          1.1140986681 -20.787675858 9.3674384516e-07 -0.22440169752 -18.365762711 0.52343386412
          6.0094461441 -23.876905441 8.5568979102e-07 -2.8460521698 -9.5743293762 9.9110150131e-07
          9.0512294769 -24.135370255 0.31170409918 -3.0502793789 -6.0254497528 0.57410395145
          -1.1094187498 -16.213155746 0.60690939426 -1.9691108465 -11.717973709 1.4297231436
          2.7790620327 -20.613025665 0.69525635242 3.514693737 -23.816175461 -0.67510795593
          15.370770454 -24.745370865 0.65601831675 0 0 0
          -2.3733279705 -12.647525787 -1.1705677509 -0.81057786942 -2.7347874641 -0.20068386197
          12.165923119 -24.424654007 0.64218974113 -1.3938432932 -14.558280945 0.64933931828
          1.0715643167 -20.776973724 0.41250640154 3.5472097397 -23.780218124 -0.33638495207
          -0.4854170382 -19.219200134 -1.1744625568 -2.344588995 -12.687017441 -0.58518779278
          -2.8558707237 -9.5555076599 0.63897365332 6.0029640198 -23.877101898 0.31087625027
          -0.44037231803 -19.20038414 -0.56365549564 0.24295979738 -21.374120712 -1.0303330421
          -1.0995349884 -17.310918808 -1.141731739 16.456184387 -27.985794067 -0.64293915033
          0 0 0 13.220299721 -27.670991898 -0.62458062172
          -0.29951778054 -18.418279648 1.0759036541 -1.8520840406 -6.0367798805 0.5478746295
          9.0331115723 -24.130243301 0.62514483929 -1.0153825283 -17.341394424 -0.5630158782
          0.32077050209 -21.335041046 -0.5007686615 -1.1414157152 -16.297338486 1.2424061298
          16.466867447 -27.997779846 -0.3203753233 0 0 0
          -2.3796823025 -12.675232887 1.1835377336e-06 3.5699517727 -23.782060623 9.1843827477e-07
          0.0149677312 -3.3072607517 -0.010605195537 13.231700897 -27.682947159 -0.31083238125
          0.014512169175 -3.4622712135 -0.005580460187 -0.45035922527 -19.17156601 1.0655505776e-06
          10.032234192 -27.381298065 -0.60386061668 -1.0245199203 -17.301963806 1.1733510519e-06
          0.36804622412 -21.349863052 9.9639817108e-07 16.471694946 -28.001184464 7.1072651053e-07
          0 0 0 0.045846078545 -6.1848254204 0.010182323866
          10.046203613 -27.388154984 -0.30084237456 13.235984802 -27.685562134 7.631726362e-07
          -1.5146362782 -14.566146851 1.3196012974 1.021032691 -20.838554382 0.83732056618
          0.013172454201 -3.5782289505 5.786426982e-07 0.035601671785 -6.504275322 0.0080127902329
          5.9831719398 -23.882328033 0.62151414156 -2.8959023952 -9.5369749069 1.2944885492
          -2.0498082638 -15.423731804 -1.0283565521 1.7228645086 -23.975904465 -0.81817698479
          -2.3445887566 -12.687018394 0.58519023657 3.5472097397 -23.780218124 0.33638679981
          -2.0042462349 -15.515099525 -0.52170360088 1.770788312 -23.917352676 -0.4021601975
          -0.44037184119 -19.20038414 0.56365764141 10.051005363 -27.389076233 8.2305257365e-07
          0.026885168627 -6.6287636757 1.3336449456e-06 6.9020881653 -27.133325577 -0.59760069847
          -1.0153822899 -17.341394424 0.56301820278 0.3207706809 -21.335041046 0.50077068806
          16.466867447 -27.997779846 0.32037675381 0 0 0
          0.062094114721 -10.8627882 0.001967945369 6.9180750847 -27.129089355 -0.29886764288
          13.231700897 -27.682947159 0.31083390117 0.046651780605 -11.204330444 -0.0042559374124
          -2.0533087254 -15.464009285 1.3528679119e-06 1.8031704426 -23.922821045 9.7423003353e-07
          0.014512068592 -3.4622712135 0.0055815852247 10.046203613 -27.388154984 0.30084401369
          6.9241085052 -27.129455566 8.8617662186e-07 0.041946891695 -11.343520164 1.9368576432e-06
          3.514693737 -23.816175461 0.67510980368 0.21817737818 -22.069807053 -1.0481524467
          0.035601384938 -6.504275322 -0.0080102533102 -2.3733277321 -12.647526741 1.1705701351
          -0.70377922058 -19.973791122 -0.94673222303 0.26927357912 -22.103319168 -0.49929919839
          -0.48541623354 -19.219200134 1.1744647026 -0.65654861927 -20.029434204 -0.47308033705
          -2.0042459965 -15.515100479 0.52170628309 1.7707884312 -23.917352676 0.40216213465
          0.2429599911 -21.374120712 1.0303350687 -1.0995345116 -17.310918808 1.1417338848
          0.084031663835 -13.854512215 -0.0053338240832 4.3014769554 -27.035547256 -0.66228729486
          16.456184387 -27.985794067 0.64294052124 0 0 0
          13.220299721 -27.670993805 0.62458211184 0.07395169884 -14.2067976 -0.0055801556446
          0.25284606218 -22.076726913 1.1401969005e-06 -1.7833993435 -18.04057312 -0.85809755325
          0.88916122913 -24.360149384 -0.96883106232 4.3311123848 -26.999090195 -0.32727634907
          0.01496807579 -3.3072609901 0.010606267489 -0.69319534302 -19.978580475 1.2488233097e-06
          6.9180750847 -27.129089355 0.29886940122 0.046651240438 -11.204330444 0.0042597074062
          0.94948971272 -24.335447311 -0.4674859941 -1.7618795633 -18.14078331 -0.42722928524
          10.032234192 -27.381298065 0.60386222601 0.068229809403 -14.229375839 1.9472784061e-06
          4.3520617485 -27.00053215 9.4525319128e-07 0.045846261084 -6.1848258972 -0.010180231184
          0.972635746 -24.33675766 1.032820478e-06 17.526945114 -31.250061035 -0.63700693846
          0 0 0 -1.8299423456 -18.075519562 1.4039628695e-06
          17.533618927 -31.266160965 -0.31742161512 0 0 0
          0.26927387714 -22.103321075 0.49930146337 14.251914024 -30.939437866 -0.61326122284
          -2.0498082638 -15.423731804 1.0283591747 1.722864747 -23.975904465 0.81817895174
          0.84798306227 -2.710277319 -0.24352878332 -0.65654838085 -20.029434204 0.47308281064
          14.259483337 -30.954906464 -0.30530130863 1.2501962185 -2.836815834 -0.24659846723
          6.9020881653 -27.133325577 0.59760242701 17.537322998 -31.270828247 7.2656928296e-07
          0.073951132596 -14.206798553 0.0055839857087 11.006846428 -30.654369354 -0.5885386467
          1.9200764894 -5.9748973846 0.49744334817 4.3311123848 -26.999090195 0.32727825642
          0 0 0 2.4905385971 -27.11277771 -0.79031074047
          0.099077709019 -16.485454559 -0.010715709999 0.062093149871 -10.8627882 -0.0019645292778
          3.1942403316 -5.917406559 0.54464000463 11.017788887 -30.664045334 -0.29328110814
          14.262589455 -30.958652496 7.752890383e-07 0.94948989153 -24.335447311 0.46748805046
          0.091359041631 -16.844373703 -0.0059467633255 2.5314450264 -27.062078476 -0.3879878521
          -1.7618795633 -18.14078331 0.42723205686 1.3816487789 -3.0324327946 6.0040633798e-07
          -0.2866743803 -22.602729797 -0.77565455437 11.02170372 -30.666025162 8.333857977e-07
          0.21817786992 -22.069807053 1.0481545925 3.4684596062 -5.8389554024 1.7696257828e-06
          0.085536494851 -16.800653458 1.9000193561e-06 -0.25848314166 -22.682579041 -0.39519071579
          2.5523703098 -27.061864853 1.0054233144e-06 -0.70377886295 -19.97379303 0.94673460722
          17.533618927 -31.266160965 0.31742307544 7.8050074577 -30.405212402 -0.57997226715
          -1.5275121927 -20.529411316 -0.71079659462 0 0 0
          3.1510694027 -9.4188337326 1.2963641882 0.91870969534 -24.890165329 -0.88826066256
          3.119212389 -9.4335193634 0.63903903961 7.8180146217 -30.403474808 -0.28993076086
          14.259483337 -30.954906464 0.30530285835 -1.5237243176 -20.633850098 -0.35002228618
          0.96283328533 -24.958850861 -0.42957559228 1.2501962185 -2.8368160725 0.24659961462
          0.084030620754 -13.854512215 0.0053375009447 4.3014769554 -27.035547256 0.66228920221
          -0.30903208256 -22.641427994 1.2864057908e-06 -1.7833993435 -18.04057312 0.85810023546
          0.88916152716 -24.360149384 0.96883320808 7.8227014542 -30.405035019 8.9612871079e-07
          11.017788887 -30.664045334 0.29328277707 -1.6091295481 -20.567245483 1.4280625464e-06
          3.1942400932 -5.9174060822 -0.54463660717 3.1112585068 -9.4513778687 2.0649238195e-06
          0.091358534992 -16.844373703 0.005950499326 2.5314450264 -27.062078476 0.38798984885
          0.93511456251 -24.938587189 1.1672185565e-06 1.6424970627 -27.354696274 -0.8907892704
          0.10894736648 -18.905712128 -0.017739236355 1.6823316813 -27.349248886 -0.43001189828
          0.10247798264 -19.226699829 -0.0076448884793 17.526945114 -31.250061035 0.63700836897
          0 0 0 -0.25848299265 -22.682579041 0.39519327879
          2.6382982731 -12.575980186 1.1717795134 5.1481366158 -30.275632858 -0.6534178853
          2.6159377098 -12.610181808 0.58322006464 14.251914024 -30.939437866 0.61326271296
          0.84798359871 -2.710277319 0.24352999032 5.1749229431 -30.241510391 -0.32033067942
          7.8180146217 -30.403474808 0.289932549 -1.5237243176 -20.633850098 0.35002508759
          3.1192121506 -9.4335193634 -0.6390349865 0.96283340454 -24.958850861 0.42957791686
          1.6813726425 -27.341341019 1.0676583315e-06 0.096587441862 -19.138772964 1.7928408624e-06
          11.006846428 -30.654369354 0.58854025602 1.9200767279 -5.9748973846 -0.49744057655
          2.4905388355 -27.11277771 0.79031276703 2.6540555954 -12.597104073 2.0825855245e-06
          0.099076837301 -16.485454559 0.010719154961 5.1929244995 -30.24263382 9.5872053407e-07
          18.591083527 -34.54908371 -0.63607263565 0 0 0
          -0.28667417169 -22.602729797 0.77565699816 1.6823319197 -27.349248886 0.43001404405
          0 0 0 15.268131256 -34.240516663 -0.60610157251
          -1.2547396421 -22.960067749 -0.56603103876 0.1024774909 -19.226699829 0.0076484181918
          0.69896060228 -1.2104769945 -0.57936167717 0.12715058029 -25.209793091 -0.62733250856
          18.594999313 -34.57006073 -0.31709849834 7.8050074577 -30.405212402 0.57997405529
          15.273198128 -34.260509491 -0.30195724964 0.54143536091 -1.3228681087 -0.14227412641
          -1.5275121927 -20.529411316 0.71079927683 -1.2556221485 -23.080135345 -0.2824550271
          3.1510689259 -9.4188327789 -1.2963601351 3.3258090019 -30.249387741 -0.75123625994
          2.615937233 -12.610180855 -0.58321595192 0.91870981455 -24.890165329 0.88826292753
          2.3286075592 -15.390296936 1.0314657688 5.1749229431 -30.241510391 0.32033258677
          0.15113222599 -25.30714035 -0.32790791988 2.2850205898 -15.475073814 0.52119332552
          3.357416153 -30.214025497 -0.37097376585 11.962145805 -33.957607269 -0.57643210888
          18.597982407 -34.57636261 7.0157761911e-07 2.8999495506 -4.7903995514 0.79521471262
          0 0 0 11.971782684 -33.971710205 -0.28739434481
          3.3214199543 -4.7260570526 0.56175613403 15.275509834 -34.265888214 7.510665796e-07
          1.5718263388 -27.684593201 -0.73866397142 -1.3399744034 -23.038824081 1.4003554725e-06
          0.10073300451 -25.288280487 1.2831180811e-06 0.11755509675 -21.162036896 -0.024304134771
          0.93090385199 -1.8980402946 1.779923906e-07 1.5974076986 -27.767883301 -0.36663347483
          3.3666226864 -30.211704254 1.0260636145e-06 0.11137238145 -21.459716797 -0.01024298463
          2.3368103504 -15.420410156 1.9797521418e-06 1.6424974203 -27.354696274 0.89079141617
          11.975194931 -33.975421906 8.1168553834e-07 0.10894640535 -18.905712128 0.017742639408
          3.4055030346 -4.685863018 1.2401193317e-06 8.6960020065 -33.706726074 -0.56263202429
          18.594999313 -34.57006073 0.31709989905 1.557221055 -27.753763199 1.1720032944e-06
          2.7326915264 -8.481385231 1.5202488899 2.6382975578 -12.575979233 -1.1717754602
          0.10557967424 -21.404495239 1.6713453306e-06 5.1481366158 -30.275632858 0.65341979265
          0 0 0 8.7078065872 -33.709766388 -0.28154689074
          2.5439882278 -8.502620697 0.74607628584 15.273198128 -34.260509491 0.30195873976
          -1.2556221485 -23.080135345 0.28245779872 0.15113227069 -25.30714035 0.32791045308
          0.54143553972 -1.322868228 0.14227439463 3.3574163914 -30.214025497 0.37097582221
          2.2850198746 -15.475073814 -0.52118933201 11.971782684 -33.971710205 0.28739595413
          8.7111587524 -33.713024139 8.8161914391e-07 2.456330061 -30.335134506 -0.79918962717
          2.0750756264 -18.03850174 0.85786181688 2.5097990036 -8.5139369965 1.579721129e-06
          3.3214201927 -4.7260560989 -0.56175369024 2.0519256592 -18.134645462 0.42577657104
          1.5974076986 -27.767883301 0.36663579941 2.4797177315 -30.355747223 -0.39047989249
          0.11137196422 -21.459716797 0.010246261023 6.059738636 -33.545757294 -0.64261114597
          18.591083527 -34.54908371 0.63607400656 0 0 0
          2.200111866 -11.622655869 1.4222599268 6.0836558342 -33.51675415 -0.31306681037
          15.268130302 -34.240516663 0.60610306263 2.0291905403 -11.627065659 0.69544428587
          -1.2547397614 -22.960067749 0.56603372097 2.4613628387 -30.349336624 1.0954136087e-06