<?xml version="1.0"?>
<VTKFile type="UnstructuredGrid" version="0.1" byte_order="LittleEndian" header_type="UInt32" compressor="vtkZLibDataCompressor">
  <UnstructuredGrid>
    <Piece NumberOfPoints="6405" NumberOfCells="4800">
      <PointData>
        <DataArray type="Float32" Name="DISPLACEMENT" NumberOfComponents="3" ComponentName0="X-DISPLACEMENT" ComponentName1="Y-DISPLACEMENT" ComponentName2="Z-DISPLACEMENT" format="ascii" RangeMin="0" RangeMax="302.18422633">
          0 0 0 0 0 0
          2.4173295498 -1.4302514791 -1.1369638443 0 0 0
          1.5790470839 -0.81882959604 -0.88915216923 0 0 0
          2.2101271152 -1.5952345133 -0.45753028989 1.3788539171 -0.96393811703 -0.3596020937
          0 0 0 4.3664412498 -2.5824074745 -1.1680467129
          0 0 0 4.3101882935 -2.7889416218 -0.60340112448
          3.2186625004 -2.0479500294 -0.93895608187 0 0 0
          0 0 0 2.2198271751 -1.6564164162 -9.7487330208e-08
          1.4686274529 -0.48895919323 -0.67576801777 1.375218153 -0.9992262125 7.4458981203e-09
          3.1583898067 -2.2246711254 -0.48079523444 1.3475222588 -0.6621594429 -0.27218943834
          4.2639460564 -2.8481929302 -9.4049688926e-08 2.4736719131 -1.5868707895 -0.6344807744
          0 0 0 3.1138112545 -2.2792479992 7.8128188363e-08
          2.4054117203 -1.7727874517 -0.33123493195 0 0 0
          6.169254303 -4.182466507 -1.0870232582 0 0 0
          1.3259109259 -0.68623870611 1.224231454e-07 0 0 0
          0 0 0 2.2101271152 -1.5952347517 0.45753011107
          4.6900353432 -3.7167637348 -0.88779175282 6.1921658516 -4.3365511894 -0.55297130346
          1.6012685299 -0.58581155539 -0.20829215646 1.3788540363 -0.96393835545 0.3596021235
          4.7059903145 -3.8626434803 -0.4497282207 1.5789331198 -0.83391726017 -0.14507561922
          2.3629286289 -1.8164784908 2.4231604812e-07 4.3101887703 -2.7889420986 0.60340094566
          0 0 0 0 0 0
          1.5972379446 -1.3338770866 -0.27191528678 3.5609796047 -3.3817145824 -0.6808154583
          6.1758332253 -4.3909564018 -3.0627241188e-08 3.1583898067 -2.2246716022 0.48079541326
          3.5163218975 -3.5064697266 -0.34562319517 1.3475222588 -0.66215968132 0.27218970656
          4.6971149445 -3.9080805779 1.8414299063e-07 1.5249449015 -1.5432423353 -0.17324951291
          1.5328247547 -0.85856103897 2.9219202702e-07 0 0 0
          7.7829446793 -6.0797467232 -0.95311820507 0 0 0
          6.0402336121 -5.6807289124 -0.82296389341 2.4054119587 -1.7727878094 0.33123543859
          7.8319649696 -6.1845216751 -0.48323512077 2.4173300266 -1.430251956 1.1369637251
          0 0 0 0 0 0
          1.5095834732 -1.5892324448 4.1296547693e-07 3.4938099384 -3.5333538055 3.823118675e-07
          0.87587314844 -0.69682759047 -0.62088674307 6.0795960426 -5.7819881439 -0.4143421948
          1.5790472031 -0.81883001328 0.88915228844 2.1784753799 -3.1103727818 -0.52518284321
          0 0 0 6.1921658516 -4.3365516663 0.55297124386
          0.74298268557 -0.73698073626 -0.19701698422 2.0867314339 -3.220392704 -0.24333159626
          4.7059903145 -3.8626439571 0.44972860813 1.5789333582 -0.83391749859 0.14507623017
          4.5548229218 -5.4244794846 -0.70902603865 1.8611632586 -1.9665849209 -0.69019824266
          7.8328480721 -6.2216773033 8.9742805187e-08 4.3664417267 -2.5824081898 1.1680465937
          0 0 0 0 0 0
          4.5664515495 -5.5064611435 -0.35128462315 3.2186629772 -2.0479507446 0.93895632029
          6.0843129158 -5.8180389404 3.2647955095e-07 1.8370349407 -1.9424501657 -0.28912132978
          1.4686278105 -0.48895964026 0.6757683754 0.7671443224 -0.78531897068 2.9520072076e-07
          2.0574505329 -3.2581856251 5.8033481309e-07 3.5163221359 -3.5064702034 0.34562397003
          1.5249451399 -1.5432426929 0.17325037718 4.5808143616 -5.5355815887 5.4771373925e-07
          2.47367239 -1.5868715048 0.63448131084 1.8853807449 -2.0208616257 4.7080510512e-07
          3.2980985641 -5.3006224632 -0.66398793459 7.8319649696 -6.1845221519 0.48323529959
          6.1692547798 -4.1824674606 1.0870232582 0 0 0
          9.216878891 -8.1241226196 -0.84297567606 0 0 0
          0 0 0 2.2686433792 -3.596167326 -0.70507901907
          3.190792799 -5.3284459114 -0.30813133717 9.2656793594 -8.1957502365 -0.42503580451
          7.2849025726 -7.7520856857 -0.75270265341 6.0795965195 -5.7819886208 0.41434285045
          0.60004174709 -0.74895101786 -0.453112185 0 0 0
          4.69003582 -3.7167646885 0.88779217005 1.6012688875 -0.58581209183 0.20829278231
          2.3391644955 -3.6029794216 -0.22084270418 0.74298280478 -0.73698091507 0.19701752067
          0.50882565975 -0.81361156702 -0.19771569967 2.0867316723 -3.2203931808 0.24333280325
          7.3313412666 -7.8263916969 -0.37854731083 4.5664515495 -5.5064616203 0.35128572583
          3.0328044891 -5.2804479599 8.0861883589e-07 9.2733373642 -8.2222394943 2.5376087365e-07
          0.98894524574 -2.0403380394 -0.51759141684 1.8370354176 -1.9424507618 0.2891228497
          0 0 0 5.5894298553 -7.4387397766 -0.66763031483
          1.5972384214 -1.3338776827 0.27191618085 3.56098032 -3.3817155361 0.68081629276
          2.3329467773 -3.6769237518 8.0302027072e-07 7.3437709808 -7.8537402153 4.9411909231e-07
          0.51002442837 -0.80893671513 3.4524899206e-07 0.97870492935 -2.1106784344 -0.27387037873
          5.6137781143 -7.5250163078 -0.33925589919 7.7829451561 -6.0797476768 0.95311838388
          0 0 0 2.5060577393 -5.3930244446 -0.41260817647
          6.0402345657 -5.680729866 0.82296454906 0.95682793856 -2.1193299294 8.1911593952e-07
          2.6321098804 -5.516415596 -0.29722592235 5.6119599342 -7.5636410713 7.3325719541e-07
          0.87587368488 -0.69682794809 0.62088745832 3.1907935143 -5.3284463882 0.3081330061
          4.1110601425 -7.1703667641 -0.55612760782 9.2656803131 -8.1957502365 0.42503631115
          1.3733582497 -3.8394603729 -0.41204628348 2.1784760952 -3.1103737354 0.52518421412
          0 0 0 2.3391647339 -3.6029798985 0.2208443284
          4.1493492126 -7.2925229073 -0.29942092299 0.50882571936 -0.81361168623 0.19771640003
          1.439889431 -3.9093439579 -0.25068438053 7.3313412666 -7.8263921738 0.37854829431
          4.5548233986 -5.4244804382 0.70902723074 1.8611639738 -1.9665856361 0.69019973278
          10.521209717 -10.252971649 -0.76381367445 0 0 0
          2.6769576073 -5.4902567863 1.1869993841e-06 8.4633817673 -9.8961381912 -0.69054615498
          10.561933517 -10.309030533 -0.38366323709 0 0 0
          0.31970405579 -0.89266031981 -0.29561179876 8.5011129379 -9.9581432343 -0.34559553862
          4.1555342674 -7.3440074921 1.0229296095e-06 0.25192371011 -0.96682757139 -0.12505604327
          0.97870510817 -2.1106786728 0.27387192845 1.4630744457 -3.8902013302 1.2549666053e-06
          5.6137785912 -7.5250167847 0.33925738931 6.605928421 -9.5868062973 -0.60766339302
          0.49528649449 -2.2337827682 -0.32965651155 10.572077751 -10.329369545 4.41533615e-07
          0 0 0 0.47517907619 -2.3224203587 -0.16816684604
          6.6330637932 -9.6536579132 -0.30360287428 8.5112485886 -9.9808273315 6.64292088e-07
          0.25194448233 -0.97565257549 4.1945608587e-07 3.2980997562 -5.3006238937 0.66398954391
          2.6112866402 -6.9975070953 -0.32915353775 9.2168798447 -8.1241235733 0.8429761529
          0 0 0 1.6450372934 -5.61459589 -0.34690251946
          2.6321103573 -5.5164160728 0.29722821712 2.2686440945 -3.5961682796 0.7050807476
          7.2849030495 -7.7520871162 0.75270366669 0.60004222393 -0.74895131588 0.45311295986
          1.6433901787 -5.7219429016 -0.19129265845 2.704264164 -7.1662445068 -0.19506937265
          4.1493496895 -7.2925233841 0.29942294955 1.4398896694 -3.9093444347 0.25068682432
          6.6381931305 -9.6733913422 8.8878346105e-07 0.46035960317 -2.3373577595 9.4350667723e-07
          4.8940477371 -9.3650770187 -0.49302795529 0.64156925678 -3.9150247574 -0.27944490314
          0.988945961 -2.0403387547 0.51759290695 10.561933517 -10.309031487 0.38366413116
          5.5894303322 -7.4387412071 0.66763174534 0 0 0
          2.8455049992 -7.2887921333 1.30523199e-06 1.7269235849 -5.746090889 1.473774546e-06
          4.9156742096 -9.4231100082 -0.24163562059 8.5011129379 -9.9581441879 0.34559687972
          0.61565762758 -4.0074830055 -0.15062656999 0.25192379951 -0.9668276906 0.12505686283
          2.5060584545 -5.3930253983 0.41261032224 4.9299688339 -9.4305753708 1.1297529454e-06
          6.6330637932 -9.6536579132 0.30360466242 0.47517922521 -2.3224205971 0.16816872358
          0.60677498579 -4.0259037018 1.4636402739e-06 11.735474586 -12.464319229 -0.7100212574
          0 0 0 11.765218735 -12.513237953 -0.35515296459
          4.1110610962 -7.1703677177 0.55612957478 9.5670862198 -12.133717537 -0.64496469498
          1.3733588457 -3.839461565 0.41204866767 1.8986462355 -7.438580513 -0.46467909217
          0.14198976755 -1.0620872974 -0.16218116879 1.6433904171 -5.7219438553 0.19129553437
          2.7042646408 -7.1662449837 0.19507189095 0 0 0
          9.5950345993 -12.185966492 -0.32126793265 1.8592057228 -7.4432682991 -0.14710506797
          0.10284899175 -1.1246221066 -0.066309891641 3.133975029 -9.2606544495 -0.41479671001
          0.76417404413 -5.9029998779 -0.39989057183 10.521209717 -10.252972603 0.76381450891
          0 0 0 8.4633827209 -9.8961391449 0.69054746628
          11.773617744 -12.53061676 6.348043371e-07 0.75261169672 -5.9278244972 -0.18884962797
          3.1046614647 -9.2904605865 -0.18263350427 0.31970462203 -0.89266055822 0.29561269283
          7.5492463112 -11.866747856 -0.57253086567 0.15936088562 -2.4585096836 -0.17682991922
          0 0 0 4.9156746864 -9.4231109619 0.24163787067
          0.61565774679 -4.0074834824 0.15062946081 9.6038160324 -12.203469276 8.2795543221e-07
          2.0471305847 -7.5973567963 1.558730105e-06 7.5703530312 -11.917926788 -0.28302642703
          0.1434801966 -2.5398416519 -0.087634466588 0.10105925053 -1.1354929209 4.7804456926e-07
          6.6059288979 -9.586807251 0.60766518116 0.49528720975 -2.2337832451 0.32965832949
          3.0986516476 -9.2785549164 1.4152424228e-06 0.73494958878 -5.9294028282 1.8553107566e-06
          2.6112873554 -6.997508049 0.32915613055 7.578107357 -11.932325363 1.0303841691e-06
          0.12943406403 -2.5600476265 1.0747015722e-06 1.6450377703 -5.6145968437 0.34690532088
          11.765219688 -12.513238907 0.35515421629 5.6441307068 -11.698703766 -0.4983124733
          0 0 0 0.12044193596 -4.141242981 -0.1543751061
          5.650952816 -11.735728264 -0.24650897086 9.5950345993 -12.185967445 0.32126957178
          0.10284908116 -1.1246222258 0.066310830414 1.8592057228 -7.4432687759 0.14710822701
          0.10275567323 -4.2220644951 -0.071345597506 4.894048214 -9.3650779724 0.49303025007
          2.1090044975 -9.5013399124 -0.49413028359 3.1046619415 -9.2904605865 0.18263636529
          0.64156985283 -3.9150254726 0.27944758534 0.75261157751 -5.9278249741 0.18885329366
          0.92922276258 -7.8033275604 -0.52623718977 2.1595675945 -9.5211744308 -0.23686979711
          5.6593852043 -11.747491837 1.2467393162e-06 7.570353508 -11.917926788 0.28302851319
          0.14348034561 -2.5398418903 0.087636604905 0.9993930459 -7.7914719582 -0.27975612879
          0.080822370946 -4.2442312241 1.6887754555e-06 12.879665375 -14.756807327 -0.67406147718
          0 0 0 0.033411707729 -1.2138744593 -0.0714841187
          2.3614799976 -9.6745405197 1.7318316168e-06 3.766279459 -11.59546566 -0.48531997204
          10.601230621 -14.446182251 -0.61350595951 11.735474586 -12.464320183 0.7100225091
          0 0 0 0 0 0
          0.98269015551 -7.7700181007 2.0289689928e-06 0.051252678037 -6.0006318092 -0.14680963755
          12.900066376 -14.801939011 -0.33669185638 3.7280399799 -11.604814529 -0.23587355018
          10.621156693 -14.493224144 -0.30511188507 9.5670862198 -12.133718491 0.64496636391
          0.015814017504 -1.2596869469 -0.027853138745 1.8986465931 -7.4385814667 0.46468216181
          0.1419903934 -1.0620875359 0.16218219697 -0.02855052799 -6.0780968666 -0.11979765445
          5.650952816 -11.735728264 0.24651150405 0.10275570303 -4.2220649719 0.071348905563
          8.4231996536 -14.205303192 -0.54952210188 3.1339764595 -9.2606563568 0.41479983926
          0.76417410374 -5.9030008316 0.39989411831 0 0 0
          -0.030182234943 -2.6835584641 -0.072772756219 12.906531334 -14.817354202 8.1472649072e-07
          0.014379254542 -1.2700724602 5.2395733974e-07 3.6952064037 -11.609985352 1.537211233e-06
          8.439704895 -14.249070168 -0.27243420482 7.549246788 -11.86674881 0.57253295183
          10.627864838 -14.508565903 9.7177507996e-07 0.15936169028 -2.4585101604 0.17683199048
          -0.031795177609 -6.0762786865 2.1852247301e-06 -0.03409024328 -2.7429196835 -0.032734353095
          2.1595675945 -9.5211744308 0.23687332869 0.99939286709 -7.791472435 0.2797601223
          1.2067807913 -9.9094743729 -0.56205540895 8.4451084137 -14.262499809 1.1440582739e-06
          -0.042669247836 -2.7620062828 1.1740791024e-06 1.277208209 -9.9181022644 -0.26374825835
          6.3454651833 -14.063799858 -0.49603390694 0 0 0
          -0.15994356573 -4.3964338303 -0.040050331503 12.900066376 -14.801939011 0.33669346571
          0.015814116225 -1.2596870661 0.0278541632 3.7280409336 -11.604815483 0.23587667942
          6.3558735847 -14.096038818 -0.24655486643 5.6441311836 -11.69870472 0.4983150363
          10.621156693 -14.493224144 0.30511382222 2.4050216675 -11.688573837 -0.50287365913
          -0.15490990877 -8.0670051575 -0.50671720505 0.1204425171 -4.1412434578 0.15437822044
          -0.17320075631 -4.4622263908 -0.012368866242 -0.028550790623 -6.0780968666 0.11980197579
          2.4732317924 -11.707835197 -0.24298536777 -0.15244242549 -8.0573539734 -0.25805270672
          1.3448735476 -9.9899625778 2.0901909465e-06 2.1090047359 -9.5013408661 0.49413356185
          8.439704895 -14.249070168 0.27243646979 0.92922252417 -7.8033285141 0.52624106407
          6.3575658798 -14.11020565 1.3501262401e-06 -0.034090079367 -2.7429196835 0.032736688852
          -0.19232021272 -4.4833011627 1.8522774781e-06 2.6001079082 -11.775313377 1.784823894e-06
          -0.1393571347 -8.0537548065 2.4512073651e-06 -0.39799848199 -6.308049202 -0.0026734163985
          4.4116725922 -14.003322601 -0.4847907424 12.879665375 -14.756807327 0.67406308651
          0 0 0 1.2772078514 -9.9181022644 0.26375234127
          0.033412385732 -1.2138745785 0.071485236287 -0.47787714005 -6.3813018799 -0.019721407443
          3.7662808895 -11.595467567 0.48532310128 10.601230621 -14.446183205 0.61350786686
          4.412820816 -14.016051292 -0.24167370796 13.978348732 -17.124256134 -0.6530764699
          0 0 0 0.05125271529 -6.0006327629 0.14681367576
          13.991109848 -17.169240952 -0.32583746314 -0.019690509886 -1.3186645508 -0.01250736136
          11.592544556 -16.820581436 -0.59152239561 6.3558735847 -14.096038818 0.24655754864
          0 0 0 -0.17320072651 -4.4622263908 0.012372479774
          11.60545826 -16.86693573 -0.29449811578 -0.021962070838 -1.3512670994 -0.0040608365089
          2.4732317924 -11.707835197 0.24298891425 -0.15244279802 -8.0573539734 0.2580575943
          8.4231996536 -14.205304146 0.54952430725 -0.50733977556 -6.402859211 2.4275236683e-06
          4.4009284973 -14.022986412 1.576863724e-06 -0.030181372538 -2.6835587025 0.072775028646
          1.4589606524 -12.115412712 -0.51962977648 -0.089741505682 -2.8468842506 -0.0065589840524
          9.2563018799 -16.575561523 -0.52711546421 0.11512390524 -10.222157478 -0.50423723459
          13.995858192 -17.184129715 9.6589917575e-07 0 0 0
          1.5160336494 -12.146986961 -0.23370245099 11.609800339 -16.881721497 1.08146196e-06
          -0.022414579988 -1.3599132299 5.5442183111e-07 9.2702388763 -16.61946106 -0.26136526465
          -0.087737955153 -2.8884608746 -6.6969194449e-05 0.12673185766 -10.250114441 -0.2416729629
          1.2067801952 -9.9094753265 0.56205940247 1.59499681 -12.222306252 1.9686135602e-06
          -0.89980137348 -8.3823013306 -0.31650903821 -0.47787752748 -6.3813023567 0.019726203755
          2.8406641483 -14.051978111 -0.47583931684 9.2744417191 -16.632362366 1.2094334352e-06
          6.3454651833 -14.063799858 0.49603652954 4.4128212929 -14.016052246 0.2416768223
          0.11018757522 -10.258178711 2.313458026e-06 -0.090811356902 -2.9044578075 1.2398039644e-06
          -0.15994292498 -4.3964343071 0.04005375132 13.991109848 -17.169240952 0.32583940029
          7.0044035912 -16.42988205 -0.46359679103 -1.0487481356 -8.4197387695 -0.19713079929
          -0.20405040681 -4.6070132256 0.017136882991 2.8984184265 -14.068925858 -0.2305482626
          2.4050221443 -11.688574791 0.5028770566 -0.15491056442 -8.0670061111 0.50672197342
          0 0 0 -0.20944014192 -4.6537275314 0.012733329087
          11.60545826 -16.86693573 0.29450026155 -0.021961968392 -1.3512670994 0.0040619205683
          7.0142607689 -16.462686539 -0.23492313921 -1.0947401524 -8.4128427505 2.6860038815e-06
          2.9574382305 -14.090238571 1.6939625311e-06 1.5160331726 -12.146986961 0.23370637
          7.0113110542 -16.474197388 1.3320614016e-06 -0.21862639487 -4.6740922928 1.9383953713e-06
          9.2702388763 -16.61946106 0.26136767864 -0.08773779124 -2.8884608746 6.9428533607e-05
          0.12673145533 -10.250114441 0.24167761207 -0.397998631 -6.3080496788 0.0026776839513
          4.411673069 -14.003323555 0.48479369283 4.9426522255 -16.382616043 -0.43700587749
          13.978348732 -17.124258041 0.65307837725 0 0 0
          -0.35974058509 -6.592798233 0.011752015911 -0.019689798355 -1.3186645508 0.012508539483
          11.592544556 -16.820581436 0.59152454138 -1.0487490892 -8.4197387695 0.19713626802
          2.8984186649 -14.068926811 0.23055163026 4.9700317383 -16.401643753 -0.22459305823
          0.42715334892 -12.535803795 -0.48852518201 -0.40190047026 -6.6487264633 0.019786212593
          -0.20944008231 -4.6537275314 -0.012729519978 7.0142602921 -16.462686539 0.23492580652
          0.40450903773 -12.537615776 -0.22276444733 1.6705157757 -14.335626602 -0.4818431139
          -0.88803339005 -10.587301254 -0.53162562847 15.057366371 -19.574863434 -0.6437894702
          0 0 0 12.562868118 -19.271402359 -0.57887083292
          1.4589598179 -12.115412712 0.51963353157 -0.089740589261 -2.8468844891 0.0065613766201
          9.2563018799 -16.575563431 0.52711778879 -0.92893087864 -10.582915306 -0.24515417218
          1.7046290636 -14.342060089 -0.21409760416 0.11512305588 -10.222158432 0.50424182415
          15.06387043 -19.621696472 -0.32088881731 0 0 0
          -0.43006119132 -6.6870002747 2.5003375868e-06 4.9828166962 -16.412942886 1.4587643591e-06
          -0.040268026292 -1.3533762693 0.029424117878 12.569719315 -19.319055557 -0.28832858801
          -0.032011345029 -1.3809603453 0.012172454037 0.3636534214 -12.537504196 2.0885536287e-06
          10.087821007 -19.014472961 -0.51040285826 -0.94358044863 -10.592645645 2.3976367629e-06
          1.7391705513 -14.360840797 1.7773747913e-06 15.066858292 -19.636844635 1.0815405176e-06
          0 0 0 -0.073051176965 -2.9009604454 0.037366256118
          10.095200539 -19.060014725 -0.25350177288 12.572428703 -19.333841324 1.15716864e-06
          -0.89980345964 -8.3823022842 0.31651476026 2.8406643867 -14.051979065 0.4758426249
          -0.031534060836 -1.3888984919 5.6998453601e-07 -0.067747242749 -2.936008215 0.019169183448
          7.0044031143 -16.429883957 0.46359941363 -0.20404970646 -4.6070132256 -0.017133297399
          -0.55609637499 -8.6950769424 0.025139233097 3.2995967865 -16.453136444 -0.44540223479
          -0.40190064907 -6.6487264633 -0.019781311974 4.9700317383 -16.401643753 0.22459594905
          -0.69513761997 -8.8226528168 -0.057470273226 3.3341500759 -16.453315735 -0.20998752117
          0.40450853109 -12.537615776 0.22276860476 10.097471237 -19.073057175 1.2323207557e-06
          -0.065766647458 -2.9497890472 1.2677070345e-06 7.6089863777 -18.835422516 -0.44125419855
          -0.92893129587 -10.582915306 0.24515897036 1.704628706 -14.342060089 0.21410113573
          15.06387043 -19.621696472 0.32089099288 0 0 0
          -0.10411877185 -4.68070364 0.041574932635 7.6199774742 -18.871427536 -0.2248069644
          12.569719315 -19.319055557 0.28833088279 -0.10137477517 -4.7165756226 0.021530084312
          -0.70809024572 -8.8189535141 2.7104767923e-06 3.3582265377 -16.454544067 1.5382158836e-06
          -0.032011244446 -1.3809603453 -0.012171342969 10.095200539 -19.060014725 0.25350421667
          7.625500679 -18.88397789 1.2735255268e-06 -0.1005063653 -4.7394075394 1.9769856863e-06
          4.9426517487 -16.382616043 0.43700873852 0.66442334652 -14.825164795 -0.50444072485
          -0.067747078836 -2.9360079765 -0.019166668877 -0.35974046588 -6.592798233 -0.011747383513
          -0.50996911526 -12.984111786 -0.56016993523 0.62665420771 -14.766965866 -0.21049772203
          0.42715236545 -12.535804749 0.48852926493 -0.58090800047 -12.922440529 -0.2335485369
          -0.69513785839 -8.8226528168 0.057475667447 3.3341500759 -16.453317642 0.20999057591
          1.6705149412 -14.335627556 0.48184648156 -0.88803452253 -10.587302208 0.53163045645
          -0.13435973227 -6.6603336334 0.045646350831 5.405459404 -18.762559891 -0.41690549254
          15.057366371 -19.574863434 0.64379155636 0 0 0
          12.562868118 -19.271402359 0.5788730979 -0.13379198313 -6.7236356735 0.02365399152
          0.54941219091 -14.69652462 1.8331389811e-06 -1.3262199163 -11.196512222 -0.80564022064
          1.9903732538 -16.657752991 -0.44898366928 5.4468002319 -18.78609848 -0.20859657228
          -0.040267307311 -1.3533761501 -0.029422916472 -0.64550209045 -12.906664848 2.115039706e-06
          7.6199774742 -18.871427536 0.2248095274 -0.10137470812 -4.7165756226 -0.021526206285
          1.9921691418 -16.635402679 -0.20198352635 -1.368319869 -11.076915741 -0.34984108806
          10.087821007 -19.014474869 0.51040530205 -0.1343857795 -6.7469849586 2.5668271064e-06
          5.482524395 -18.801450729 1.3415740341e-06 -0.073050253093 -2.9009604454 -0.037363819778
          1.9780312777 -16.614114761 1.5659751398e-06 16.130414963 -22.124156952 -0.64159619808
          0 0 0 -1.3842989206 -11.082377434 2.3017421427e-06
          16.132631302 -22.172660828 -0.31980568171 0 0 0
          0.62665343285 -14.766965866 0.21050134301 13.526414871 -21.820192337 -0.57478559017
          -0.55609673262 -8.6950778961 -0.0251342915 3.2995967865 -16.453136444 0.44540524483
          -0.059899214655 -1.3088476658 0.071116164327 -0.58090853691 -12.922441483 0.23355276883
          13.528585434 -21.868768692 -0.28629156947 -0.041243705899 -1.3410564661 0.028391357511
          7.6089863777 -18.835422516 0.44125682116 16.134132385 -22.188262939 1.1630864947e-06
          -0.13379219174 -6.7236356735 -0.023648975417 10.918522835 -21.558609009 -0.50589555502
          -0.053552333266 -2.8267381191 0.080924868584 5.4468002319 -18.786100388 0.20859926939
          0 0 0 3.7617025375 -18.819278717 -0.42356267571
          -0.16541591287 -8.8709192276 0.048557363451 -0.10411806405 -4.6807031631 -0.041571278125
          -0.045377455652 -2.8674631119 0.038343258202 10.921116829 -21.603540421 -0.25171649456
          13.529920578 -21.883861542 1.2059064147e-06 1.9921689034 -16.635402679 0.20198664069
          -0.1699295938 -8.9499969482 0.02656246908 3.777380228 -18.811594009 -0.19633996487
          -1.3683204651 -11.076915741 0.34984573722 -0.039901722223 -1.3495028019 5.7167676459e-07
          -0.16511619091 -15.404974937 -0.59746134281 10.922712326 -21.616983414 1.2497011994e-06
          0.66442197561 -14.825164795 0.50444418192 -0.038588594645 -2.8830094337 1.2640091427e-06
          -0.17254924774 -9.029592514 2.9026771244e-06 -0.25740820169 -15.266222954 -0.24819646776
          3.7851412296 -18.804992676 1.4090766172e-06 -0.50997036695 -12.98411274 0.56017410755
          16.132631302 -22.172660828 0.31980797648 8.2798395157 -21.352685928 -0.44698664546
          -0.79562413692 -13.745126724 -0.86705070734 0 0 0
          0.0018560795579 -4.5783677101 0.065252691507 0.86570858955 -17.048599243 -0.49579039216
          0.011622384191 -4.6231098175 0.029634570703 8.2841520309 -21.388055801 -0.22116105258
          13.528585434 -21.868768692 0.28629398346 -0.79652416706 -13.575068474 -0.32546922565
          0.82624930143 -16.966974258 -0.21179284155 -0.041243623942 -1.3410563469 -0.028390243649
          -0.13435956836 -6.6603331566 -0.045641712844 5.4054589272 -18.762559891 0.41690823436
          -0.44136580825 -15.124632835 1.7693602103e-06 -1.3262215853 -11.196512222 0.80564498901
          1.9903726578 -16.657752991 0.44898664951 8.2892370224 -21.399703979 1.2842314163e-06
          10.921116829 -21.603540421 0.25171899796 -0.9135299325 -13.507393837 1.9459973828e-06
          -0.045377321541 -2.8674628735 -0.038340758532 0.022507784888 -4.6427955627 1.9611718471e-06
          -0.16993011534 -8.9499969482 -0.026556763798 3.777380228 -18.811594009 0.19634276628
          0.72777336836 -16.872900009 1.5251617924e-06 2.3486142159 -18.973361969 -0.42562738061
          -0.19970192015 -11.668422699 0.046292137355 2.3148796558 -18.928136826 -0.19135224819
          -0.22587314248 -11.842612267 0.018878815696 16.130414963 -22.124156952 0.64159846306
          0 0 0 -0.25740885735 -15.266222954 0.24819995463
          0.099162653089 -6.5566616058 0.073524869978 6.0110216141 -21.24197197 -0.43653905392
          0.14188243449 -6.6085977554 0.024383481592 13.526414871 -21.820192337 0.57478797436
          -0.059898536652 -1.3088475466 -0.071114979684 6.0412225723 -21.258378983 -0.20318490267
          8.2841520309 -21.388055801 0.22116363049 -0.79652476311 -13.575068474 0.32547307014
          0.011622400954 -4.6231098175 -0.029630726203 0.82624858618 -16.966974258 0.21179586649
          2.2681467533 -18.884342194 1.3807734831e-06 -0.21971018612 -11.483382225 2.8370550353e-06
          10.918522835 -21.558610916 0.50589799881 -0.053551476449 -2.8267378807 -0.080922462046
          3.7617022991 -18.819278717 0.42356541753 0.16939871013 -6.6465368271 2.5898107197e-06
          -0.16541668773 -8.8709192276 -0.048552047461 6.070271492 -21.265014648 1.3209522649e-06
          17.202539444 -24.781352997 -0.64248549938 0 0 0
          -0.16511771083 -15.404974937 0.59746474028 2.3148794174 -18.928136826 0.19135499001
          0 0 0 14.488009453 -24.476892471 -0.57534885406
          -0.32014414668 -16.220993042 -0.77917248011 -0.22587364912 -11.84261322 -0.018873251975
          -0.11029071361 -1.1932011843 0.12959524989 0.088750243187 -17.616624832 -0.62889653444
          17.202548981 -24.830583572 -0.3204664588 8.2798395157 -21.352685928 0.44698920846
          14.48786068 -24.525615692 -0.28703826666 -0.076707616448 -1.2380312681 0.05223248899
          -0.79562592506 -13.745126724 0.86705458164 -0.28454706073 -16.118103027 -0.26465696096
          0.0018566946965 -4.5783672333 -0.065249092877 4.2421441078 -21.204910278 -0.41143459082
          0.14188210666 -6.6085972786 -0.024378469214 0.86570698023 -17.048599243 0.49579322338
          0.24274085462 -8.6606874466 0.067596070468 6.0412225723 -21.258378983 0.20318754017
          0.011466552503 -17.481840134 -0.24791462719 0.37462055683 -8.7810564041 0.1018152684
          4.2414803505 -21.195318222 -0.19173757732 11.762703896 -24.20671463 -0.50833564997
          17.203033447 -24.846481323 1.2062354244e-06 -0.1062008813 -2.6405699253 0.14642900229
          0 0 0 11.763069153 -24.252754211 -0.25325468183
          -0.093117512763 -2.6983134747 0.071018174291 14.488334656 -24.541069031 1.2235625491e-06
          1.1248892546 -19.267148972 -0.47107455134 -0.55746877193 -15.844797134 1.6695763634e-06
          -0.27585116029 -17.195091248 1.4550998912e-06 -0.2532466054 -14.331845284 -0.021132243797
          -0.074591442943 -1.2478728294 5.6885005506e-07 1.0590530634 -19.178606033 -0.20867569745
          4.2394266129 -21.185285568 1.3077991525e-06 -0.26489028335 -14.684803009 -0.0010333603714
          0.38583415747 -8.7756204605 3.0470439469e-06 2.348613739 -18.973361969 0.42563003302
          11.764252663 -24.267076492 1.2530722415e-06 -0.19970351458 -11.668423653 -0.046287186444
          -0.08132711798 -2.7162673473 1.2289907545e-06 9.0049419403 -23.968578339 -0.44786658883
          17.202548981 -24.830583572 0.32046884298 0.92708283663 -19.072633743 1.2684249668e-06
          -0.026934597641 -4.3337254524 0.11970705539 0.099162623286 -6.5566606522 -0.073520287871
          -0.26745313406 -14.393311501 2.3495183541e-06 6.0110216141 -21.241973877 0.43654164672
          0 0 0 9.0062170029 -24.007997513 -0.222083956
          -0.012035467662 -4.3959083557 0.053626045585 14.48786068 -24.525615692 0.28704068065
          -0.28454777598 -16.118103027 0.2646600306 0.011465567164 -17.481840134 0.24791735411
          -0.076707571745 -1.2380310297 -0.052231390029 4.2414798737 -21.195318222 0.19174015522
          0.37461948395 -8.7810554504 -0.10180932283 11.763068199 -24.252754211 0.25325718522
          9.0075750351 -24.019922256 1.2984216937e-06 2.7569749355 -21.308021545 -0.4212295413
          0.93556690216 -11.199371338 0.88523423672 0.0078422240913 -4.4154500961 1.8735809135e-06
          -0.093117468059 -2.6983132362 -0.071015760303 0.97038072348 -11.065998077 0.38736116886
          1.0590525866 -19.178604126 0.20867821574 2.6950132847 -21.248916626 -0.19232475758
          -0.26489111781 -14.684803009 0.0010376193095 6.7364358902 -23.803894043 -0.42716166377
          17.202539444 -24.781352997 0.64248782396 0 0 0
          0.16446299851 -6.2325544357 0.080476529896 6.7466773987 -23.804862976 -0.19689443707