<?xml version="1.0"?>
<VTKFile type="UnstructuredGrid" version="0.1" byte_order="LittleEndian" header_type="UInt32" compressor="vtkZLibDataCompressor">
  <UnstructuredGrid>
    <Piece NumberOfPoints="6405" NumberOfCells="4800">
      <PointData>
        <DataArray type="Float32" Name="DISPLACEMENT" NumberOfComponents="3" ComponentName0="X-DISPLACEMENT" ComponentName1="Y-DISPLACEMENT" ComponentName2="Z-DISPLACEMENT" format="ascii" RangeMin="0" RangeMax="287.67965486">
          0 0 0 0 0 0
          2.3319988251 -1.3760019541 -1.104162097 0 0 0
          1.5737477541 -0.78343248367 -0.89149421453 0 0 0
          2.1277830601 -1.524310112 -0.44684368372 1.3749684095 -0.91461801529 -0.36042103171
          0 0 0 4.2116389275 -2.3912124634 -1.1400847435
          0 0 0 4.1553897858 -2.5821938515 -0.59106552601
          3.2120966911 -1.8607281446 -0.93502688408 0 0 0
          0 0 0 2.1363039017 -1.5835597515 -5.8503829337e-08
          1.5732570887 -0.44643720984 -0.7089946866 1.3718005419 -0.94944363832 2.5985738006e-08
          3.1539418697 -2.0247988701 -0.47966483235 1.4554032087 -0.60908740759 -0.28327485919
          4.1105055809 -2.6380918026 2.6721210133e-08 2.6231734753 -1.3822650909 -0.64818507433
          0 0 0 3.1100568771 -2.0767269135 1.6255390278e-07
          2.5604894161 -1.5605653524 -0.3388607502 0 0 0
          5.9715147018 -3.7988314629 -1.0674322844 0 0 0
          1.4350436926 -0.62990838289 9.9081347571e-08 0 0 0
          0 0 0 2.1277832985 -1.5243103504 0.44684362411
          4.6784448624 -3.337177515 -0.88312578201 5.9936394691 -3.9431736469 -0.54395151138
          1.9465034008 -0.55805760622 -0.22634868324 1.3749685287 -0.9146181941 0.36042112112
          4.6949605942 -3.4753093719 -0.44772666693 1.9305503368 -0.80432975292 -0.15980507433
          2.519043684 -1.6012220383 2.8253518281e-07 4.1553902626 -2.5821940899 0.59106564522
          0 0 0 0 0 0
          1.9345009327 -1.1120353937 -0.28652924299 3.7354426384 -2.9985923767 -0.68669098616
          5.9787254333 -3.9951884747 2.0817368807e-07 3.1539423466 -2.0247991085 0.47966518998
          3.6975264549 -3.1199035645 -0.34950068593 1.4554034472 -0.6090875864 0.28327509761
          4.6867189407 -3.5191810131 3.7318929458e-07 1.8666619062 -1.3169212341 -0.18409264088
          1.8825908899 -0.82198697329 2.0627878428e-07 0 0 0
          7.5581889153 -5.4827365875 -0.94102191925 0 0 0
          6.0208215714 -5.0868144035 -0.8177241087 2.560489893 -1.5605655909 0.33886134624
          7.606317997 -5.5829768181 -0.47737756371 2.3319993019 -1.3760023117 1.104162097
          0 0 0 0 0 0
          1.8541554213 -1.360035181 4.02460131e-07 3.6781175137 -3.1478044987 5.0967730658e-07
          1.0060380697 -0.5817373991 -0.70210111141 6.0604367256 -5.1845531464 -0.41230344772
          1.5737479925 -0.7834327817 0.89149439335 2.5404632092 -2.7104811668 -0.5433152318
          0 0 0 5.993639946 -3.9431738853 0.54395192862
          0.86999934912 -0.60301226377 -0.2324308008 2.4596045017 -2.8160941601 -0.25099611282
          4.694961071 -3.4753098488 0.44772744179 1.9305508137 -0.80432999134 0.15980549157
          4.7297782898 -4.827144146 -0.71247851849 2.1174440384 -1.632584691 -0.77487927675
          7.6080274582 -5.6189870834 4.807805567e-07 4.2116394043 -2.3912131786 1.1400848627
          0 0 0 0 0 0
          4.7456359863 -4.9129977226 -0.35271251202 3.2120974064 -1.8607286215 0.93502730131
          6.0654292107 -5.2204828262 6.5403611416e-07 2.1862592697 -1.6446722746 -0.35423147678
          1.5732575655 -0.44643750787 0.70899498463 0.90439128876 -0.65497994423 1.8773995691e-07
          2.4360358715 -2.8544790745 6.4707330694e-07 3.6975269318 -3.1199040413 0.34950172901
          1.8666622639 -1.3169213533 0.18409346044 4.7592339516 -4.9443712234 7.9203704217e-07
          2.6231741905 -1.3822655678 0.64818572998 2.2623414993 -1.7106336355 1.608329967e-07
          3.7181353569 -4.6991004944 -0.65022259951 7.6063184738 -5.5829772949 0.47737851739
          5.9715156555 -3.7988321781 1.0674327612 0 0 0
          8.9769420624 -7.3059267998 -0.83557963371 0 0 0
          0 0 0 2.8856015205 -3.1717455387 -0.66956746578
          3.6283917427 -4.7523474693 -0.30196619034 9.0249538422 -7.3765153885 -0.42145937681
          7.2579350471 -6.9341573715 -0.7466070056 6.0604372025 -5.1845536232 0.41230475903
          0.74846768379 -0.57231199741 -0.53881168365 0 0 0
          4.678445816 -3.3371782303 0.88312661648 1.9465042353 -0.55805796385 0.22634914517
          2.9664537907 -3.2203171253 -0.14356862009 0.86999952793 -0.60301232338 0.23243114352
          0.64634209871 -0.62858861685 -0.23643395305 2.459605217 -2.8160943985 0.25099745393
          7.3039441109 -7.0084824562 -0.37582442164 4.7456364632 -4.9129981995 0.35271412134
          3.4843838215 -4.7149424553 9.3293795089e-07 9.0329580307 -7.4027915001 8.3965431941e-07
          1.2923051119 -1.6610808372 -0.58518975973 2.1862602234 -1.6446726322 0.35423263907
          0 0 0 5.7760281563 -6.6095666885 -0.65869730711
          1.9345017672 -1.1120357513 0.28653013706 3.7354435921 -2.998593092 0.68669211864
          2.976111412 -3.2648396492 5.0533566309e-07 7.3161821365 -7.0360040665 9.987145404e-07
          0.65215158463 -0.62096363306 2.0617180496e-07 1.2785671949 -1.7366936207 -0.30520963669
          5.8009748459 -6.6986813545 -0.33462029696 7.5581898689 -5.4827375412 0.94102293253
          0 0 0 3.1257748604 -4.792163372 -0.34292218089
          6.020822525 -5.0868148804 0.8177254796 1.2608360052 -1.7447681427 5.9377686057e-07
          3.2371091843 -4.9538598061 -0.25758171082 5.7987780571 -6.7360677719 1.1324382285e-06
          1.0060386658 -0.58173769712 0.70210170746 3.6283926964 -4.752348423 0.30196812749
          4.5050401688 -6.3178224564 -0.53034943342 9.0249547958 -7.3765153885 0.42146104574
          1.8091970682 -3.2468597889 -0.47246527672 2.5404644012 -2.7104818821 0.54331672192
          0 0 0 2.9664545059 -3.2203176022 0.14356982708
          4.5402827263 -6.4468016624 -0.28656256199 0.64634227753 -0.62858873606 0.23643442988
          1.8727433681 -3.297157526 -0.25794509053 7.3039445877 -7.008482933 0.3758264482
          4.7297797203 -4.8271450996 0.71248024702 2.1174447536 -1.6325849295 0.77488046885
          10.27184391 -9.215133667 -0.75911206007 0 0 0
          3.2871549129 -4.9498066902 1.1572606127e-06 8.431219101 -8.8596982956 -0.68562179804
          10.311768532 -9.2716646194 -0.38148310781 0 0 0
          0.47503465414 -0.66366064548 -0.3822453618 8.4681396484 -8.9223852158 -0.34316766262
          4.548825264 -6.4913010597 1.2793657334e-06 0.38962066174 -0.73703879118 -0.16205450892
          1.2785675526 -1.7366938591 0.30521070957 1.8811451197 -3.2929537296 9.4916413218e-07
          5.8009753227 -6.6986818314 0.33462256193 6.7906322479 -8.5524158478 -0.60194659233
          0.81774818897 -1.7899074554 -0.42467290163 10.322019577 -9.2923526764 1.2644387652e-06
          0 0 0 0.80364471674 -1.8737206459 -0.21967573464
          6.8167629242 -8.6197423935 -0.3002884388 8.4782648087 -8.9454040527 1.3895167967e-06
          0.39102876186 -0.7448938489 3.041039065e-07 3.7181367874 -4.6991014481 0.65022462606
          3.1836390495 -6.1122922897 -0.2884517014 8.9769430161 -7.3059272766 0.83558130264
          0 0 0 2.3878500462 -4.9632501602 -0.2192004472
          3.2371098995 -4.9538602829 0.25758382678 2.8856031895 -3.171746254 0.66956889629
          7.2579364777 -6.9341583252 0.74660903215 0.74846827984 -0.57231223583 0.53881233931
          2.361332655 -5.1092977524 -0.14097698033 3.2453899384 -6.2835383415 -0.17475935817
          4.54028368 -6.4468021393 0.28656515479 1.8727440834 -3.2971577644 0.25794693828
          6.8228578568 -8.6394023895 1.503961812e-06 0.78971660137 -1.8902873993 7.3886047858e-07
          5.2960677147 -8.3383579254 -0.48989513516 1.145263195 -3.27790308 -0.36075815558
          1.2923061848 -1.6610811949 0.58519101143 10.311768532 -9.2716655731 0.381485641
          5.7760295868 -6.6095671654 0.65869963169 0 0 0
          3.3465640545 -6.3773403168 1.428839596e-06 2.4490861893 -5.1592583656 1.2989339666e-06
          5.3108110428 -8.3910913467 -0.23654015362 8.4681406021 -8.9223852158 0.34317043424
          1.1589089632 -3.3562476635 -0.17985677719 0.38962084055 -0.73703885078 0.16205511987
          3.1257765293 -4.7921643257 0.34292435646 5.3249592781 -8.3946809769 1.633140414e-06
          6.8167638779 -8.6197423935 0.30029144883 0.80364507437 -1.8737207651 0.21967725456
          1.1498893499 -3.3740308285 1.2563330074e-06 11.478541374 -11.208567619 -0.70729547739
          0 0 0 11.507798195 -11.258782387 -0.35408088565
          4.5050420761 -6.3178238869 0.53035205603 9.5259637833 -10.881329536 -0.64131146669
          1.8091984987 -3.2468605042 0.47246718407 2.6414282322 -6.5113353729 -0.40409174562
          0.29575526714 -0.77446472645 -0.24618861079 2.361333847 -5.1092982292 0.14097955823
          3.2453911304 -6.2835392952 0.1747623086 0 0 0
          9.5537576675 -10.934855461 -0.31966033578 2.5186414719 -6.5142836571 -0.058344621211
          0.23850345612 -0.8410089016 -0.10292762518 3.7791211605 -8.2313690186 -0.42681327462
          1.4701411724 -4.9957723618 -0.30153411627 10.271844864 -9.2151346207 0.75911456347
          0 0 0 8.4312210083 -8.8596992493 0.68562459946
          11.5163908 -11.276804924 1.7200177354e-06 1.4711982012 -5.0529603958 -0.13874804974
          3.7022168636 -8.2458553314 -0.17866632342 0.47503527999 -0.6636608839 0.38224613667
          7.722796917 -10.619736671 -0.56971514225 0.49377778172 -1.9208849669 -0.27864861488
          0 0 0 5.3108119965 -8.3910923004 0.23654347658
          1.1589093208 -3.3562479019 0.17985926569 9.5628013611 -10.953231812 1.794550144e-06
          2.7093954086 -6.6223182678 1.6044112954e-06 7.7450037003 -10.672521591 -0.28237494826
          0.47683060169 -2.0022528172 -0.14241696894 0.23811644316 -0.85226815939 3.9312823219e-07
          6.7906336784 -8.5524158478 0.60194963217 0.81774914265 -1.7899078131 0.42467442155
          3.6450150013 -8.2169303894 1.8653911411e-06 1.4572632313 -5.0889134407 1.7956799638e-06
          3.1836414337 -6.1122937202 0.28845500946 7.7532343864 -10.688628197 1.8857156192e-06
          0.46453544497 -2.0232181549 9.3134855206e-07 2.3878519535 -4.9632511139 0.21920312941
          11.507799149 -11.258782387 0.35408431292 6.0381069183 -10.455897331 -0.49955424666
          0 0 0 0.67162752151 -3.3843057156 -0.249636814
          6.046816349 -10.498476982 -0.24749770761 9.5537576675 -10.934855461 0.31966394186
          0.23850360513 -0.84100902081 0.10292840749 2.518642664 -6.5142841339 0.05834838748
          0.67553120852 -3.4614918232 -0.12465675175 5.2960691452 -8.3383588791 0.48989856243
          2.8345808983 -8.401468277 -0.43626195192 3.702218771 -8.2458562851 0.17867016792
          1.1452642679 -3.2779035568 0.36076059937 1.4711985588 -5.0529608727 0.13875161111
          1.6635816097 -6.8265247345 -0.42329642177 2.86200881 -8.4130029678 -0.2289506495
          6.0565156937 -10.514193535 2.0129823497e-06 7.7450046539 -10.672521591 0.28237873316
          0.47683089972 -2.0022528172 0.14241883159 1.7395577431 -6.812494278 -0.26103273034
          0.66547465324 -3.4847509861 1.5356913536e-06 12.616378784 -13.282726288 -0.67334413528
          0 0 0 0.16264560819 -0.86357074976 -0.14021807909
          3.0833365917 -8.5515165329 2.2533477022e-06 4.4541106224 -10.348095894 -0.48230022192
          10.550250053 -12.974806786 -0.60973405838 11.478542328 -11.208568573 0.70729887486
          0 0 0 0 0 0
          1.7009935379 -6.7431383133 2.3936936486e-06 0.83906883001 -5.0840396881 -0.22164656222
          12.63686657 -13.330730438 -0.33663544059 4.3953542709 -10.365922928 -0.23915953934
          10.570724487 -13.0248909 -0.30360239744 9.5259647369 -10.881329536 0.64131504297
          0.12862589955 -0.92059206963 -0.057797495276 2.6414299011 -6.5113363266 0.40409532189
          0.2957559526 -0.77446496487 0.24618953466 0.81563842297 -5.1420555115 -0.11381278187
          6.0468168259 -10.498477936 0.24750174582 0.67553144693 -3.4614920616 0.12465978414
          8.583779335 -12.736683846 -0.54336488247 3.7791244984 -8.2313709259 0.42681741714
          1.4701420069 -4.9957728386 0.30153745413 0 0 0
          0.26026061177 -2.0378170013 -0.16051273048 12.643880844 -13.347324371 2.1637845293e-06
          0.12786827981 -0.93246167898 4.6500966278e-07 4.3180985451 -10.365127563 2.2554156658e-06
          8.6037349701 -12.785678864 -0.27039322257 7.7227983475 -10.619737625 0.56971889734
          10.577597618 -13.041714668 2.1734911115e-06 0.4937787652 -1.9208853245 0.27865052223
          0.80518788099 -5.1603827477 2.1412497517e-06 0.24948707223 -2.1100018024 -0.080898612738
          2.8620095253 -8.4130029678 0.22895519435 1.7395576239 -6.8124947548 0.26103717089
          1.8999457359 -8.6844577789 -0.48251447082 8.6101179123 -12.802412987 2.218378313e-06
          0.24176837504 -2.13139534 1.0795955632e-06 1.9421563148 -8.6811685562 -0.22199782729
          6.7318396568 -12.59088707 -0.48743221164 0 0 0
          0.33530434966 -3.4990985394 -0.14431267977 12.636867523 -13.330730438 0.33663973212
          0.12862604856 -0.92059212923 0.057798422873 4.3953561783 -10.365922928 0.23916402459
          6.7471194267 -12.635157585 -0.2428201735 6.0381083488 -10.455897331 0.49955829978
          10.570725441 -13.0248909 0.30360671878 3.0470499992 -10.332436562 -0.41479688883
          0.95538407564 -6.9532403946 -0.30485999584 0.67162841558 -3.3843061924 0.24963974953
          0.33544462919 -3.5721139908 -0.071747280657 0.81563842297 -5.1420559883 0.1138169691
          3.1295130253 -10.380358696 -0.2306535244 0.85635256767 -7.0212984085 -0.18550229073
          2.0182113647 -8.7398233414 2.5989870664e-06 2.834581852 -8.4014692307 0.43626582623
          8.6037349701 -12.785678864 0.27039763331 1.6635817289 -6.8265252113 0.42330056429
          6.7478823662 -12.654151917 2.2972556053e-06 0.24948734045 -2.1100018024 0.080900773406
          0.32911917567 -3.5952494144 1.735701062e-06 3.3265266418 -10.48592186 2.4539826882e-06
          0.84754699469 -7.0297541618 2.6654154226e-06 0.38750186563 -5.207701683 -0.12907384336
          5.0638713837 -12.526239395 -0.44228902459 12.616379738 -13.282726288 0.67334842682
          0 0 0 1.942155838 -8.6811685562 0.22200272977
          0.16264632344 -0.86357092857 0.14021915197 0.3698925972 -5.2832841873 -0.060387291014
          4.4541130066 -10.348096848 0.48230442405 10.550251007 -12.974806786 0.60973840952
          5.0783057213 -12.559105873 -0.22795559466 13.713643074 -15.434702873 -0.65433138609
          0 0 0 0.83906930685 -5.0840401649 0.22165046632
          13.726794243 -15.48466301 -0.32660132647 0.057071149349 -0.91919714212 -0.053159002215
          11.531927109 -15.131532669 -0.5865765214 6.7471199036 -12.635157585 0.24282471836
          0 0 0 0.33544483781 -3.5721139908 0.071750715375
          11.546015739 -15.183285713 -0.292119205 0.044376116246 -0.96946340799 -0.021722527221
          3.1295132637 -10.380358696 0.23065827787 0.85635203123 -7.0212988853 0.18550756574
          8.5837802887 -12.736683846 0.54336923361 0.35438534617 -5.3091902733 2.3308869004e-06
          5.0705504417 -12.569206238 2.3806071567e-06 0.26026162505 -2.0378172398 0.16051489115
          2.1849982738 -10.747236252 -0.45675939322 0.083715379238 -2.1151750088 -0.059883538634
          9.4021615982 -14.889896393 -0.51484423876 0.99577891827 -9.0089988708 -0.50491422415
          13.73205471 -15.501364708 2.5600031677e-06 0 0 0
          2.2108466625 -10.762929916 -0.1821924448 11.550756454 -15.200104713 2.5018757697e-06
          0.044106423855 -0.9808396697 5.2382068816e-07 9.4181747437 -14.940982819 -0.25560000539
          0.080409690738 -2.1802763939 -0.029886480421 1.033924222 -9.0109004974 -0.24996955693
          1.8999452591 -8.6844577789 0.48251903057 2.3061738014 -10.88187027 2.4859659788e-06
          0.37244728208 -7.106859684 -0.11639348418 0.3698925972 -5.2832846642 0.060391861945
          3.4323120117 -12.495140076 -0.38910382986 9.421631813 -14.956450462 2.4715468498e-06
          6.7318406105 -12.59088707 0.48743665218 5.078306675 -12.559105873 0.22796027362
          1.0339277983 -9.0096435547 2.6443856314e-06 0.077510252595 -2.2002820969 1.1953252397e-06
          0.33530527353 -3.4990990162 0.14431597292 13.726794243 -15.484662056 0.32660645247
          7.3733725548 -14.747534752 -0.44062247872 0.31539583206 -7.1971988678 -0.092995040119
          0.096413016319 -3.5858602524 -0.051257137209 3.4953875542 -12.533849716 -0.18545500934
          3.0470507145 -10.332437515 0.41480129957 0.95538341999 -6.9532413483 0.30486488342
          0 0 0 0.097145467997 -3.654173851 -0.024238992482
          11.546015739 -15.18328476 0.29212421179 0.044376261532 -0.9694634676 0.021723564714
          7.3929190636 -14.791589737 -0.21943442523 0.31299501657 -7.2140388489 2.7140304155e-06
          3.5760877132 -12.566382408 2.3212639917e-06 2.2108459473 -10.762929916 0.18219728768
          7.3947505951 -14.805102348 2.4597491119e-06 0.093698240817 -3.6781642437 1.8930654733e-06
          9.4181756973 -14.940982819 0.25560492277 0.080409958959 -2.1802766323 0.029888870195
          1.0339235067 -9.0109004974 0.24997478724 0.38750231266 -5.2077021599 0.1290781647
          5.0638718605 -12.526239395 0.44229346514 5.5299754143 -14.725274086 -0.3838866055
          13.713644028 -15.43470192 0.65433645248 0 0 0
          0.091127559543 -5.3115673065 -0.035277914256 0.057071916759 -0.91919720173 0.053160164505
          11.531929016 -15.131531715 0.58658146858 0.31539547443 -7.1971988678 0.093000374734
          3.4953877926 -12.533849716 0.1854595989 5.5670714378 -14.744818687 -0.19196945429
          1.3354568481 -11.11679554 -0.49465969205 0.083691544831 -5.3844456673 -0.017668480054
          0.097145706415 -3.654173851 0.024242728949 7.3929190636 -14.791589737 0.21943931282
          1.3530883789 -11.108696938 -0.18265487254 2.3571925163 -12.768996239 -0.44119656086
          0.11990638822 -9.314250946 -0.49259293079 14.796430588 -17.681642532 -0.64577585459
          0 0 0 12.495386124 -17.376308441 -0.57211941481
          2.1849973202 -10.747236252 0.45676392317 0.083716437221 -2.1151750088 0.059885907918
          9.4021615982 -14.889896393 0.51484906673 0.11664664 -9.3162603378 -0.25068348646
          2.3777391911 -12.771024704 -0.16514629126 0.99577778578 -9.0089988708 0.50491923094
          14.803527832 -17.734741211 -0.32174983621 0 0 0
          0.078126855195 -5.4096016884 2.4878218028e-06 5.5886697769 -14.748047829 2.3983768642e-06
          -0.034840580076 -0.936165452 0.02486086823 12.502869606 -17.430828094 -0.28502139449
          -0.027822023258 -0.98400944471 0.01025352627 1.3352985382 -11.15410614 2.3921359116e-06
          10.210968018 -17.117940903 -0.49325048923 0.1210115999 -9.3223571777 2.5967169677e-06
          2.4141173363 -12.804048538 2.2045696824e-06 14.806740761 -17.751943588 2.8989554721e-06
          0 0 0 -0.063393779099 -2.1378078461 0.031457539648
          10.220399857 -17.17165184 -0.2439751476 12.505578041 -17.447942734 2.7766805033e-06
          0.37244698405 -7.1068601608 0.1163983494 3.4323124886 -12.495141029 0.38910862803
          -0.027375765145 -0.99500238895 5.6947510529e-07 -0.058835554868 -2.2001559734 0.016156194732
          7.3733730316 -14.747534752 0.44062721729 0.096413984895 -3.5858604908 0.051260728389
          0.046967990696 -7.2853550911 -0.058599539101 3.9170176983 -14.783987999 -0.3864428997
          0.083691604435 -5.3844456673 0.017673373222 5.5670714378 -14.744818687 0.19197417796
          0.018790176138 -7.3602490425 -0.02279776521 3.911604166 -14.763644218 -0.17209123075
          1.3530874252 -11.108696938 0.18265967071 10.223488808 -17.186103821 2.6643779165e-06
          -0.057135500014 -2.2198793888 1.2861833056e-06 7.9499707222 -16.955364227 -0.40593722463
          0.11664580554 -9.3162603378 0.25068876147 2.3777387142 -12.771024704 0.16515083611
          14.803528786 -17.734741211 0.32175561786 0 0 0
          -0.088920995593 -3.6092796326 0.035017143935 7.9567523003 -16.998001099 -0.20457088947
          12.502869606 -17.430826187 0.28502693772 -0.08686183393 -3.6758677959 0.018112067133
          0.0029463772662 -7.3984360695 2.8335966817e-06 3.8955669403 -14.737116814 2.3066320409e-06
          -0.027821887285 -0.98400938511 -0.010252405889 10.220399857 -17.17165184 0.24398046732
          7.9551978111 -17.008525848 2.5279250622e-06 -0.086156144738 -3.6983792782 2.0254713036e-06
          5.5299754143 -14.72527504 0.38389125466 1.6953785419 -13.373652458 -0.47166585922
          -0.058835301548 -2.2001559734 -0.016153631732 0.091128110886 -5.3115677834 0.035282529891
          0.41479218006 -11.481656075 -0.52214902639 1.6851345301 -13.342260361 -0.15820498765
          1.3354552984 -11.116794586 0.4946641922 0.4287892282 -11.448821068 -0.21785721183
          0.018789980561 -7.3602490425 0.022803336382 3.9116048813 -14.763645172 0.17209580541
          2.3571918011 -12.768995285 0.44120082259 0.11990460008 -9.314250946 0.49259826541
          -0.11201999336 -5.3473758698 0.036677829921 5.9353427887 -16.911821365 -0.3641422689
          14.796430588 -17.681642532 0.64578163624 0 0 0
          12.495387077 -17.376308441 0.57212489843 -0.11242935807 -5.4130978584 0.0190533977
          1.5372387171 -13.211468697 2.1858945729e-06 -0.024507960305 -9.4418725967 -0.033212054521
          2.669978857 -14.946536064 -0.40565055609 5.9734101295 -16.937141418 -0.17828029394
          -0.034839790314 -0.936165452 -0.024859629571 0.39253884554 -11.443393707 2.2206093035e-06
          7.9567523003 -16.997999191 0.20457594097 -0.086861625314 -3.6758677959 -0.018108075485
          2.6679122448 -14.924313545 -0.1758146435 -0.10397264361 -9.5691280365 -0.08114117384
          10.210968971 -17.117940903 0.49325573444 -0.11295689642 -5.4427638054 2.6663374229e-06
          6.0041899681 -16.9498806 2.4040177777e-06 -0.063392698765 -2.1378078461 -0.031455017626
          2.6405723095 -14.893398285 2.1205139547e-06 15.874490738 -20.046804428 -0.64170616865
          0 0 0 -0.1292206347 -9.5578184128 2.7737230539e-06
          15.877204895 -20.100547791 -0.31967097521 0 0 0
          1.6851330996 -13.342259407 0.15820920467 13.452719688 -19.741094589 -0.56737095118
          0.04696784541 -7.2853550911 0.058604817837 3.9170188904 -14.783988953 0.38644742966
          -0.12628522515 -0.91325378418 0.10247238725 0.42878833413 -11.448821068 0.21786160767
          13.454841614 -19.79552269 -0.28280252218 -0.099568985403 -0.96301090717 0.042101569474
          7.9499707222 -16.955364227 0.40594220161 15.878255844 -20.117832184 3.1952422432e-06
          -0.11242935061 -5.4130978584 -0.019048169255 11.030605316 -19.472330093 -0.48907876015
          -0.20982755721 -2.099647522 0.12267347425 5.9734101295 -16.937141418 0.17828506231
          0 0 0 4.3470773697 -16.978879929 -0.3725206852
          -0.1331525892 -7.3190450668 0.036224514246 -0.088920027018 -3.6092796326 -0.035013332963
          -0.19731543958 -2.1643238068 0.062174506485 11.030879974 -19.526453018 -0.24270753562
          13.456152916 -19.812572479 3.016214805e-06 2.6679120064 -14.924313545 0.17581892014
          -0.1372923702 -7.4115014076 0.018603971228 4.3346948624 -16.955171585 -0.17151838541
          -0.1039730534 -9.5691270828 0.081146635115 -0.098390229046 -0.97426813841 5.9928009932e-07
          0.77259248495 -13.768101692 -0.45884686708 11.032222748 -19.542196274 2.8284234759e-06
          1.6953763962 -13.373650551 0.47166991234 -0.19104906917 -2.1841013432 1.337021331e-06
          -0.13938188553 -7.4345350266 3.0786536627e-06 0.77354317904 -13.733184814 -0.19694633782
          4.315032959 -16.934566498 2.260235533e-06 0.41479039192 -11.481656075 0.52215343714
          15.877205849 -20.100547791 0.31967735291 8.5424995422 -19.263044357 -0.40768614411
          -0.63008195162 -11.817037582 -0.53054231405 0 0 0
          -0.27344349027 -3.559117794 0.12145836651 1.8468900919 -15.377472878 -0.44913649559
          -0.27000012994 -3.6271514893 0.060701634735 8.5437583923 -19.308712006 -0.20353111625
          13.454841614 -19.79552269 0.28280857205 -0.5824714303 -11.79384613 -0.24539877474
          1.8288412094 -15.346624374 -0.16027964652 -0.099568866193 -0.96301078796 -0.042100403458
          -0.11201947182 -5.3473758698 -0.036672901362 5.935341835 -16.911821365 0.36414691806
          0.61594855785 -13.62062645 1.8612058739e-06 -0.02450880222 -9.4418725967 0.033217154443
          2.6699783802 -14.94653511 0.4056545794 8.5483160019 -19.320720673 2.5973899938e-06
          11.030880928 -19.526453018 0.24271319807 -0.62307757139 -11.774215698 1.9438505205e-06
          -0.19731523097 -2.1643235683 -0.062171854079 -0.26534691453 -3.650680542 2.1093237592e-06
          -0.13729263842 -7.4115014076 -0.018597912043 4.3346948624 -16.955171585 0.17152288556
          1.649165988 -15.181736946 1.8005177935e-06 3.0245587826 -17.103063583 -0.39373385906
          -0.16261312366 -9.5483016968 0.032582648098 2.9737863541 -17.049665451 -0.16731795669
          -0.17308714986 -9.6113853455 0.012605961412 15.874491692 -20.046804428 0.64171248674
          0 0 0 0.77354210615 -13.733183861 0.1969500035
          -0.31266620755 -5.2766246796 0.10974954069 6.4359817505 -19.17360878 -0.37057209015
          -0.30645951629 -5.3490300179 0.056402366608 13.452720642 -19.741094589 0.56737697124
          -0.12628445029 -0.91325366497 -0.10247112811 6.4654755592 -19.189670563 -0.17189723253
          8.5437583923 -19.308712006 0.20353633165 -0.58247214556 -11.79384613 0.24540266395
          -0.26999998093 -3.6271512508 -0.060697495937 1.8288400173 -15.346623421 0.1602832675
          2.8813173771 -16.973344803 1.9763933778e-06 -0.17390583456 -9.7220048904 3.1033671348e-06
          11.03060627 -19.472330093 0.48908442259 -0.20982651412 -2.0996472836 -0.1226708889
          4.3470778465 -16.978878021 0.37252497673 -0.30188685656 -5.3736152649 2.800489483e-06
          -0.13315270841 -7.31904459 -0.036218885332 6.4897642136 -19.194063187 2.4123430649e-06
          16.944618225 -22.537460327 -0.63806468248 0 0 0
          0.7725905776 -13.768099785 0.45885038376 2.9737863541 -17.049665451 0.16732189059
          0 0 0 14.406768799 -22.234861374 -0.56891483068
          -0.31640908122 -14.070649147 -0.45009326935 -0.17308755219 -9.6113843918 -0.012599827722
          -0.22999349236 -0.85261482 0.18805365264 1.0270267725 -15.852847099 -0.42011359334
          16.945180893 -22.588493347 -0.31836247444 8.5425004959 -19.263044357 0.40769150853
          14.405994415 -22.285877228 -0.28388822079 -0.18209943175 -0.90819865465 0.077725589275
          -0.63008373976 -11.817036629 0.53054606915 -0.27322372794 -14.063637733 -0.20099109411
          -0.273442626 -3.5591173172 -0.12145444751 4.7613024712 -19.138431549 -0.3618350029
          -0.3064596653 -5.349029541 -0.056396886706 1.8468879461 -15.37747097 0.44913995266
          -0.30887517333 -7.2481336594 0.12886975706 6.4654755592 -19.189670563 0.17190206051
          1.0256142616 -15.837103844 -0.17556373775 -0.28946053982 -7.323112011 0.059237096459
          4.7473077774 -19.121095657 -0.16771046817 11.864719391 -21.965536118 -0.4989271462
          16.944833755 -22.605121613 3.4663828501e-06 -0.3832205832 -2.0070695877 0.22261235118
          0 0 0 11.859674454 -22.015874863 -0.24875445664
          -0.36287286878 -2.0780115128 0.11300814897 14.406132698 -22.302364349 3.2395562357e-06
          2.0647501945 -17.40092659 -0.41564020514 -0.37804532051 -13.960429192 1.5207964452e-06
          0.69554889202 -15.482764244 1.5890666418e-06 -0.23395758867 -12.372594833 -0.00911206007
          -0.18049104512 -0.9196498394 6.055169024e-07 2.0230197906 -17.358613968 -0.16603261232
          4.7353367805 -19.10896492 2.1879454835e-06 -0.23853129148 -12.60752964 -0.018158623949
          -0.27650624514 -7.3609952927 3.359600214e-06 3.0245585442 -17.103063583 0.39373767376
          11.859928131 -22.031904221 3.0089263419e-06 -0.16261404753 -9.5483007431 -0.032576590776
          -0.35182583332 -2.0987775326 1.3343588989e-06 9.2523174286 -21.716321945 -0.43104541302
          16.945180893 -22.588493347 0.31836938858 1.8163607121 -17.199071884 1.5874499013e-06
          -0.50787591934 -3.4455518723 0.21539391577 -0.31266587973 -5.2766242027 -0.10974445939
          -0.22542309761 -12.099427223 2.7519904506e-06 6.4359817505 -19.17360878 0.37057694793
          0 0 0 9.2498998642 -21.764451981 -0.21227096021
          -0.50394308567 -3.5174977779 0.10880004615 14.405994415 -22.285877228 0.28389468789
          -0.27322471142 -14.06363678 0.20099401474 1.0256128311 -15.837101936 0.17556662858
          -0.18209934235 -0.90819847584 -0.077724412084 4.7473077774 -19.121095657 0.16771481931
          -0.28946119547 -7.3231115341 -0.059230573475 11.859674454 -22.015874863 0.24876046181
          9.25522995 -21.778394699 2.7982173378e-06 3.4460873604 -19.230852127 -0.39423242211
          -0.26935243607 -9.4214344025 0.08408638835 -0.49672290683 -3.5398144722 2.0842244339e-06
          -0.36287274957 -2.0780110359 -0.11300551146 -0.20571860671 -9.5490617752 0.10177003592
          2.0230190754 -17.358612061 0.16603580117 3.35779953 -19.173200607 -0.17124816775
          -0.23853121698 -12.607528687 0.018164167181 7.0950527191 -21.512992859 -0.35266363621
          16.944620132 -22.537460327 0.63807153702 0 0 0
          -0.60429131985 -5.1346712112 0.20424300432 7.0897321701 -21.496433258 -0.16132616997
          14.406769753 -22.234859467 0.56892126799 -0.58878493309 -5.2078962326 0.100024499
          -0.31641107798 -14.07064724 0.45009598136 3.2293777466 -19.092985153 1.850503736e-06