<?xml version="1.0"?>
<VTKFile type="UnstructuredGrid" version="0.1" byte_order="LittleEndian" header_type="UInt32" compressor="vtkZLibDataCompressor">
  <UnstructuredGrid>
    <Piece NumberOfPoints="6405" NumberOfCells="4800">
      <PointData>
        <DataArray type="Float32" Name="DISPLACEMENT" NumberOfComponents="3" ComponentName0="X-DISPLACEMENT" ComponentName1="Y-DISPLACEMENT" ComponentName2="Z-DISPLACEMENT" format="ascii" RangeMin="0" RangeMax="327.28001034">
          0 0 0 0 0 0
          2.6802592278 -1.588733077 -1.2390919924 0 0 0
          1.6198405027 -0.91484779119 -0.88158285618 0 0 0
          2.4634065628 -1.8021296263 -0.48946160078 1.4078247547 -1.096848011 -0.36078259349
          0 0 0 4.8543424606 -3.1511995792 -1.2590349913
          0 0 0 4.795478344 -3.4019010067 -0.64301276207
          3.245572567 -2.6164474487 -0.96199959517 0 0 0
          0 0 0 2.4781723022 -1.8671096563 -7.2672065698e-08
          1.0417546034 -0.57812559605 -0.59782958031 1.3970265388 -1.1334819794 1.8229031618e-09
          3.1839530468 -2.8226149082 -0.48799902201 0.94911307096 -0.77707189322 -0.25006520748
          4.7432675362 -3.4701752663 -9.208634566e-08 2.0668880939 -2.2333946228 -0.623660326
          0 0 0 3.142875433 -2.8812420368 3.7244838325e-08
          1.9786529541 -2.4168782234 -0.31251168251 0 0 0
          6.7958197594 -5.3217206001 -1.1530479193 0 0 0
          0.97386062145 -0.82593160868 9.1337732044e-08 0 0 0
          0 0 0 2.4634068012 -1.8021297455 0.48946148157
          4.7561750412 -4.8269634247 -0.910779953 6.8220472336 -5.5023927689 -0.5833349824
          0.55788308382 -0.59099173546 -0.22266021371 1.4078248739 -1.0968482494 0.36078259349
          4.7707324028 -4.9978103638 -0.46131521463 0.50956487656 -0.83352953196 -0.10629641265
          1.9242671728 -2.4569644928 1.764010733e-07 4.795478344 -3.4019012451 0.64301258326
          0 0 0 0 0 0
          0.70606261492 -2.0623879433 -0.27199786901 3.0577998161 -4.4747991562 -0.66324931383
          6.8022079468 -5.5623612404 -8.7183998687e-08 3.1839532852 -2.8226151466 0.48799911141
          3.0045325756 -4.6310048103 -0.34032741189 0.94911319017 -0.77707207203 0.2500653863
          4.757727623 -5.0489935875 7.9354705917e-08 0.58044135571 -2.2405872345 -0.15525814891
          0.46809026599 -0.89893984795 2.4786012887e-07 0 0 0
          8.5183315277 -7.8608794212 -0.99460238218 0 0 0
          6.1590418816 -7.4377613068 -0.84487825632 1.9786529541 -2.4168784618 0.31251204014
          8.5688085556 -7.9755663872 -0.5019338131 2.6802592278 -1.5887333155 1.2390919924
          0 0 0 0 0 0
          0.51750332117 -2.2729215622 3.0783016314e-07 2.9790146351 -4.6735110283 2.3373982572e-07
          -0.038321048021 -0.79989570379 -0.21100433171 6.1946992874 -7.5470280647 -0.42372938991
          1.6198406219 -0.91484808922 0.88158291578 1.1085935831 -4.2666621208 -0.45296183228
          0 0 0 6.8220477104 -5.5023927689 0.58333480358
          -0.1780731827 -0.95884865522 -0.083528652787 1.0126414299 -4.4070329666 -0.2392064333
          4.7707328796 -4.9978108406 0.46131539345 0.50956487656 -0.83352971077 0.10629689693
          4.0839371681 -7.1490354538 -0.70345681906 0.28467664123 -2.6387188435 -0.62145137787
          8.5643520355 -8.0141630173 -5.2621622615e-08 4.8543424606 -3.1512000561 1.2590348721
          0 0 0 0 0 0
          4.0618133545 -7.2322945595 -0.35378858447 3.2455728054 -2.6164479256 0.96199965477
          6.1978845596 -7.5819859505 1.3765563267e-07 0.17427259684 -2.5877258778 -0.24081459641
          1.0417548418 -0.57812595367 0.59782981873 -0.13951186836 -1.0790250301 4.3119115389e-07
          0.9833932519 -4.4460449219 3.9222732084e-07 3.004532814 -4.6310052872 0.34032788873
          0.5804412961 -2.2405874729 0.15525877476 4.0552592278 -7.2594194412 3.1886060015e-07
          2.0668880939 -2.2333950996 0.62366068363 0.19156695902 -2.6470727921 4.8569751243e-07
          1.9121749401 -6.9701275826 -0.64241945744 8.5688085556 -7.975566864 0.50193369389
          6.7958197594 -5.3217215538 1.1530476809 0 0 0
          10.011641502 -10.593795776 -0.86163312197 0 0 0
          0 0 0 0.68704652786 -4.9016876221 -0.77021950483
          1.8344076872 -7.0067968369 -0.30901876092 10.06084919 -10.65567112 -0.43347945809
          7.4546313286 -10.218109131 -0.78239530325 6.1946992874 -7.5470285416 0.42372965813
          -0.34100684524 -0.99849790335 -0.015597233549 0 0 0
          4.756175518 -4.8269639015 0.91078013182 0.55788320303 -0.59099215269 0.22266061604
          0.67325603962 -4.8465571404 -0.3137819171 -0.17807303369 -0.95884889364 0.083529405296
          -0.3349173665 -1.0384997129 0.0026655346155 1.0126414299 -4.4070334435 0.23920725286
          7.4946370125 -10.278165817 -0.39072450995 4.0618133545 -7.2322950363 0.35378924012
          1.7961783409 -7.0179319382 5.2161578878e-07 10.064638138 -10.677762985 7.0947958619e-09
          -0.39170089364 -3.0936579704 -0.74245476723 0.17427286506 -2.5877261162 0.240815714
          0 0 0 5.1312761307 -9.941119194 -0.71214753389
          0.70606267452 -2.0623884201 0.27199849486 3.0578000546 -4.4748001099 0.66324985027
          0.70158851147 -4.8958911896 6.4525181642e-07 7.5037441254 -10.298178673 2.0971502579e-07
          -0.27664121985 -1.0451719761 2.5862067332e-07 -0.42041575909 -3.0016577244 -0.38109442592
          5.1376199722 -9.9823503494 -0.35734885931 8.5183324814 -7.8608803749 0.99460226297
          0 0 0 1.0622748137 -7.3155469894 -0.74652659893
          6.1590423584 -7.4377617836 0.84487855434 -0.44114032388 -2.9719297886 7.5940459965e-07
          1.1126365662 -7.3212900162 -0.35886597633 5.1396784782 -9.9990644455 4.1408461016e-07
          -0.038320656866 -0.79989629984 0.21100521088 1.8344079256 -7.0067973137 0.3090198338
          2.8727791309 -9.7470083237 -0.70135354996 10.06084919 -10.655672073 0.4334794879
          -0.0029319894966 -5.4313607216 -0.83350598812 1.1085938215 -4.2666630745 0.45296272635
          0 0 0 0.67325621843 -4.8465576172 0.3137831986
          2.8380763531 -9.7538166046 -0.34638628364 -0.33491703868 -1.0384998322 -0.002664974425
          0.013036542572 -5.3599328995 -0.43491899967 7.4946370125 -10.278166771 0.39072492719
          4.083937645 -7.1490364075 0.70345747471 0.28467705846 -2.6387195587 0.62145251036
          11.330012321 -13.383582115 -0.7672688365 0 0 0
          1.1755130291 -7.3906664848 7.8641244272e-07 8.6666259766 -13.033812523 -0.72695809603
          11.370622635 -13.415416718 -0.38518476486 0 0 0
          -0.73454254866 -1.1482717991 0.29784014821 8.7033824921 -13.066447258 -0.3625664711
          2.8045487404 -9.7581548691 6.4922767251e-07 -0.57396090031 -1.049315691 0.17935574055
          -0.42041555047 -3.0016582012 0.38109591603 0.015199060552 -5.3319969177 9.0330468083e-07
          5.1376199722 -9.9823503494 0.35734969378 6.1904201508 -12.748218536 -0.68891203403
          -1.1517758369 -3.2819330692 -0.52303808928 11.378195763 -13.427312851 7.5423592705e-08
          0 0 0 -1.2879402637 -3.2816989422 -0.30444836617
          6.2113609314 -12.771993637 -0.34563705325 8.7137775421 -13.077789307 2.788999609e-07
          -0.47611969709 -1.0248534679 1.2393462612e-07 1.9121755362 -6.9701285362 0.64242058992
          1.4970661402 -9.8448705673 -0.71093583107 10.011642456 -10.59379673 0.86163312197
          0 0 0 0.43747243285 -7.9027395248 -0.86425864697
          1.1126366854 -7.321290493 0.35886755586 0.6870469451 -4.9016885757 0.77022087574
          7.4546313286 -10.218109131 0.78239572048 -0.341006428 -0.99849867821 0.015598203987
          0.49263134599 -7.87246418 -0.42869752645 1.5454696417 -9.8423099518 -0.36397096515
          2.8380768299 -9.7538166046 0.34638756514 0.013036798686 -5.3599333763 0.43492084742
          6.2161164284 -12.782356262 4.9376779998e-07 -1.2173202038 -3.1974630356 8.4256430455e-07
          3.8374495506 -12.526834488 -0.67930698395 -0.80943757296 -5.8780732155 -0.88471919298
          -0.39170044661 -3.0936586857 0.74245625734 11.370622635 -13.415416718 0.38518491387
          5.1312761307 -9.9411201477 0.71214836836 0 0 0
          1.5952084064 -9.8691205978 9.0251626261e-07 0.53438305855 -7.8848919868 1.0425659411e-06
          3.8451371193 -12.534528732 -0.34101313353 8.7033824921 -13.066447258 0.36256703734
          -0.77769070864 -5.8308115005 -0.46541941166 -0.57396060228 -1.0493155718 -0.17935544252
          1.0622750521 -7.3155479431 0.74652808905 3.8365488052 -12.540550232 7.3326538086e-07
          6.2113609314 -12.771993637 0.34563803673 -1.2879400253 -3.281699419 0.30445030332
          -0.75576043129 -5.8139176369 1.2387004062e-06 12.537903786 -16.180347443 -0.70791256428
          0 0 0 12.568537712 -16.200201035 -0.35425961018
          2.8727798462 -9.747010231 0.70135486126 9.8142690659 -15.845518112 -0.68140506744
          -0.0029314893764 -5.4313616753 0.83350783587 0.844848454 -10.448060989 -0.84851574898
          -0.50359261036 -1.0664992332 0.3296584487 0.49263158441 -7.8724646568 0.42869961262
          1.5454697609 -9.8423109055 0.36397275329 0 0 0
          9.8438177109 -15.867229462 -0.33949199319 0.94993883371 -10.451881409 -0.41662949324
          -0.60539400578 -1.1300728321 -0.051431395113 2.0705463886 -12.508814812 -0.68989551067
          -0.37937989831 -8.418419838 -0.8595045805 11.330012321 -13.383583069 0.76726895571
          0 0 0 8.6666269302 -13.033813477 0.72695869207
          12.577037811 -16.207504272 1.3160074275e-07 -0.30784073472 -8.4097738266 -0.44664296508
          2.116506815 -12.505458832 -0.34862565994 -0.73454231024 -1.1482721567 -0.29783970118
          7.2276043892 -15.557516098 -0.65256220102 -1.4235339165 -3.2473158836 0.10549578816
          0 0 0 3.8451373577 -12.534528732 0.34101459384
          -0.77769058943 -5.8308124542 0.46542188525 9.8529415131 -15.874464035 3.2856257803e-07
          1.0404328108 -10.500602722 1.1112201719e-06 7.2530226707 -15.574539185 -0.32597056031
          -1.7517033815 -3.5113792419 -0.12023486942 -1.2689732313 -1.5367527008 -2.0610150031e-08
          6.1904201508 -12.74821949 0.68891298771 -1.1517754793 -3.2819344997 0.52304029465
          2.1539626122 -12.521402359 9.5295183655e-07 -0.28027564287 -8.3998041153 1.3246833532e-06
          1.4970662594 -9.844871521 0.7109375596 7.2602276802 -15.580471039 5.3815358569e-07
          -1.8977710009 -3.4891400337 7.1597816031e-07 0.43747293949 -7.9027409554 0.86426073313
          12.568537712 -16.200201035 0.3542598784 4.7817959785 -15.338809013 -0.63725495338
          0 0 0 -1.8135188818 -6.2655076981 -0.81192159653
          4.8019442558 -15.344021797 -0.32028529048 9.8438177109 -15.867229462 0.33949264884
          -0.60539460182 -1.1300734282 0.051431454718 0.94993877411 -10.451881409 0.41663169861
          -1.7256379128 -6.3215594292 -0.43881127238 3.837449789 -12.526835442 0.67930835485
          1.1899288893 -12.949194908 -0.78114795685 2.116506815 -12.505459785 0.34862753749
          -0.80943727493 -5.8780741692 0.88472163677 -0.30784058571 -8.4097738266 0.44664558768
          0.020681720227 -10.975657463 -0.78903973103 1.3131817579 -12.995625496 -0.38232135773
          4.8028635979 -15.346765518 7.5432916447e-07 7.2530226707 -15.574540138 0.32597160339
          -1.75170362 -3.5113801956 0.12023671716 0.093949645758 -11.017168045 -0.40069118142
          -1.6703710556 -6.3563742638 1.5671589608e-06 13.681965828 -18.984773636 -0.67307496071
          0 0 0 -0.49764683843 -1.8646025658 0.099847599864
          1.4324584007 -13.083295822 1.1142400353e-06 2.7609903812 -15.273194313 -0.65323072672
          10.90975666 -18.660451889 -0.64738917351 12.537903786 -16.18034935 0.7079128027
          0 0 0 0 0 0
          0.12569700181 -11.035266876 1.3128611727e-06 -1.3954056501 -8.8369464874 -0.75965577364
          13.703381538 -19.002689362 -0.33586344123 2.800150156 -15.267827988 -0.32961544394
          10.931402206 -18.679861069 -0.32227826118 9.8142690659 -15.845519066 0.68140572309
          -0.56842416525 -1.9530937672 0.14862823486 0.8448485136 -10.448061943 0.84851795435
          -0.50359255075 -1.0664995909 -0.32965818048 -1.3549871445 -8.8781480789 -0.38988518715
          4.8019442558 -15.344022751 0.3202867806 -1.7256379128 -6.321559906 0.43881443143
          8.2330064774 -18.373447418 -0.61775785685 2.0705463886 -12.508815765 0.68989735842
          -0.37937965989 -8.4184207916 0.8595072031 0 0 0
          -1.2393519878 -4.1425409317 0.092990070581 13.710826874 -19.008655548 1.6511216927e-07
          -0.53470337391 -2.0869417191 5.0035902177e-07 2.8249282837 -15.277141571 9.4310007626e-07
          8.2548723221 -18.389701843 -0.30801391602 7.2276043892 -15.557516098 0.65256327391
          10.938719749 -18.685558319 3.543746061e-07 -1.4235333204 -3.2473173141 -0.10549346358
          -1.3465657234 -8.8797683716 1.5928715129e-06 -1.4342741966 -4.2156562805 0.026940478012
          1.3131816387 -12.99562645 0.3823235631 0.093949794769 -11.017168999 0.40069383383
          0.39146018028 -13.522158623 -0.73566323519 8.2616786957 -18.394290924 5.5081665096e-07
          -1.4709318876 -4.2429347038 1.1224138916e-06 0.45439291 -13.563965797 -0.35977730155
          5.6576914787 -18.153160095 -0.59719127417 0 0 0
          -2.4429280758 -6.763027668 -0.61936849356 13.703381538 -19.002689362 0.33586376905
          -0.56842410564 -1.9530941248 -0.1486273706 2.800150156 -15.267828941 0.32961732149
          5.6813969612 -18.160484314 -0.30176976323 4.7817959785 -15.338809967 0.6372563839
          10.931402206 -18.679861069 0.32227894664 1.6143974066 -15.551113129 -0.72931373119
          -0.99118512869 -11.459886551 -0.69266444445 -1.8135187626 -6.2655086517 0.81192475557
          -2.6211299896 -6.8159651756 -0.35522329807 -1.3549871445 -8.8781480789 0.3898883462
          1.7047784328 -15.572385788 -0.35224497318 -0.97894799709 -11.507081032 -0.3426155746
          0.48982834816 -13.588277817 1.3008552742e-06 1.1899287701 -12.949195862 0.78115016222
          8.2548723221 -18.389701843 0.3080150187 0.02068194747 -10.975658417 0.78904235363
          5.6895718575 -18.16583252 7.4226971947e-07 -1.4342741966 -4.2156567574 -0.026938287541
          -2.6408131123 -6.8329019547 1.8161509843e-06 1.7865533829 -15.61480999 1.1017427823e-06
          -0.97677600384 -11.520857811 1.5403302314e-06 -2.2994332314 -9.3498363495 -0.75408250093
          3.4642393589 -18.074020386 -0.62544322014 13.681965828 -18.984773636 0.67307525873
          0 0 0 0.45439293981 -13.563965797 0.35977992415
          -0.49764639139 -1.8646031618 -0.099846795201 -2.2713930607 -9.4136314392 -0.35987147689
          2.7609903812 -15.273195267 0.65323263407 10.90975666 -18.660451889 0.64738982916
          3.5061113834 -18.070817947 -0.31382063031 14.788458824 -21.813301086 -0.65355360508
          0 0 0 -1.3954055309 -8.8369474411 0.75965887308
          14.802494049 -21.833230972 -0.32568666339 -0.30872514844 -2.3571407795 0.14179353416
          11.965743065 -21.496900558 -0.62451308966 5.6813969612 -18.160484314 0.30177125335
          0 0 0 -2.621130228 -6.8159656525 0.35522690415
          11.980264664 -21.517555237 -0.31075772643 -0.31434619427 -2.3761529922 0.06934260577
          1.7047783136 -15.572386742 0.35224717855 -0.97894793749 -11.507081032 0.34261864424
          8.2330064774 -18.373447418 0.61775892973 -2.2419638634 -9.4605474472 1.7561023924e-06
          3.5366551876 -18.083633423 9.1727463314e-07 -1.239351511 -4.1425418854 -0.092988215387
          0.7109003067 -16.03692627 -0.68686938286 -0.69807696342 -4.7841854095 0.080372430384
          9.2043428421 -21.215276718 -0.59213465452 -0.67513746023 -14.029995918 -0.66728657484
          14.808259964 -21.839424133 1.7460956769e-07 0 0 0
          0.7819442749 -16.08190155 -0.33231416345 11.985590935 -21.523252487 3.592165001e-07
          -0.34469786286 -2.4021015167 5.3721504401e-07 9.2206249237 -21.231996536 -0.29505693913
          -0.84539526701 -4.8302850723 0.080039456487 -0.69099605083 -14.036519051 -0.32466593385
          0.39146021008 -13.522159576 0.73566579819 0.83690005541 -16.117080688 1.2692113387e-06
          -1.8586724997 -12.051325798 -0.74761658907 -2.2713930607 -9.4136323929 0.35987496376
          2.1634061337 -18.267536163 -0.69102334976 9.2263088226 -21.236404419 5.4642737268e-07
          5.6576914787 -18.153160095 0.59719276428 3.5061116219 -18.070817947 0.31382247806
          -0.70619612932 -14.032021523 1.4765475953e-06 -0.92898601294 -4.8794856071 1.1451470527e-06
          -2.4429280758 -6.7630286217 0.61937195063 14.802494049 -21.83323288 0.32568699121
          6.5028514862 -20.992019653 -0.57169979811 -1.9061006308 -12.035943031 -0.34355741739
          -0.94796788692 -7.2833023071 -0.080287717283 2.2318804264 -18.276479721 -0.33212342858
          1.6143974066 -15.551114082 0.72931587696 -0.99118506908 -11.459887505 0.69266742468
          0 0 0 -1.4400037527 -7.5744700432 -0.13985648751
          11.980264664 -21.517555237 0.31075844169 -0.31434616446 -2.3761532307 -0.06934157759
          6.5224990845 -20.999574661 -0.28756323457 -1.926251173 -12.044558525 1.6716790014e-06
          2.2849421501 -18.297279358 1.0751293757e-06 0.78194409609 -16.08190155 0.33231669664
          6.5314474106 -21.00525856 7.2558043485e-07 -1.6608815193 -7.6646699905 1.6983456135e-06
          9.2206249237 -21.231998444 0.29505801201 -0.84539520741 -4.8302850723 -0.080037213862
          -0.69099605083 -14.036520004 0.32466888428 -2.2994332314 -9.3498373032 0.75408601761
          3.4642393589 -18.074020386 0.62544506788 4.1939220428 -20.896059036 -0.60880482197
          14.788458824 -21.813301086 0.65355396271 0 0 0
          -1.9737502337 -10.462562561 -1.2395423651 -0.308724612 -2.3571412563 -0.14179252088
          11.965743065 -21.496900558 0.62451380491 -1.9061005116 -12.035943985 0.34356075525
          2.231880188 -18.276479721 0.33212560415 4.2340140343 -20.893259048 -0.30070850253
          -0.37831008434 -16.55698204 -0.66380852461 -2.033523798 -10.370121956 -0.61537444592
          -1.4400037527 -7.5744700432 0.13985979557 6.5224990845 -20.999576569 0.28756466508
          -0.41087156534 -16.520860672 -0.31526935101 1.0658111572 -18.617883682 -0.64671599865
          -1.4685276747 -14.732168198 -0.78199231625 15.872694969 -24.68034935 -0.64367949963
          0 0 0 12.993087769 -24.369625092 -0.61028283834
          0.71090006828 -16.03692627 0.68687188625 -0.69807636738 -4.7841858864 -0.080370306969
          9.2043428421 -21.215276718 0.59213572741 -1.547295332 -14.647028923 -0.35404452682
          1.1156163216 -18.62771225 -0.31120836735 -0.67513740063 -14.029996872 0.66728943586
          15.881306648 -24.703601837 -0.32070288062 0 0 0
          -2.0493290424 -10.334732056 1.820737225e-06 4.2647433281 -20.905397415 8.9508233714e-07
          -0.036027658731 -2.5126757622 0.033364657313 13.002326965 -24.392755508 -0.30376935005
          -0.027085285634 -2.5000054836 0.015617572702 -0.4421081543 -16.499334335 1.3987532839e-06
          10.149224281 -24.092329025 -0.5752325058 -1.6003286839 -14.621543884 1.5587274902e-06
          1.1519274712 -18.635066986 1.2259956748e-06 15.885513306 -24.710723877 1.6226675825e-07
          0 0 0 -0.057781621814 -4.9271969795 0.047782376409
          10.161026001 -24.110626221 -0.28669443727 13.0060215 -24.399160385 3.4734122778e-07
          -1.8586726189 -12.051326752 0.74761992693 2.1634061337 -18.267538071 0.69102549553
          -0.027707416564 -2.5267441273 5.3626524732e-07 -0.054530370981 -5.0223484039 0.026055289432
          6.5028510094 -20.992019653 0.57170122862 -0.9479675889 -7.283302784 0.080290645361
          -1.3946329355 -13.29981041 -1.2420473099 2.7629368305 -21.013736725 -0.64724296331
          -2.0335240364 -10.37012291 0.6153780818 4.2340140343 -20.893259048 0.30071032047
          -1.3942503929 -13.16729641 -0.52985036373 2.819098711 -21.018295288 -0.31168568134
          -0.41087156534 -16.520860672 0.31527215242 10.16545105 -24.115684509 5.3282673207e-07
          -0.056022789329 -5.1011719704 1.1141904679e-06 7.3427276611 -23.862337112 -0.55483472347
          -1.547295332 -14.647028923 0.35404765606 1.1156162024 -18.62771225 0.31121081114
          15.881306648 -24.703601837 0.32070320845 0 0 0
          -0.073108322918 -7.5182538033 0.058289378881 7.3577413559 -23.871377945 -0.27816793323
          13.002326965 -24.392755508 0.30377003551 -0.074046991765 -7.7108736038 0.034383669496
          -1.435469985 -13.15541935 1.5186286646e-06 2.8569600582 -21.028030396 1.0477748447e-06
          -0.027085237205 -2.5000054836 -0.015616552904 10.161026001 -24.110626221 0.28669551015
          7.3647108078 -23.877454758 7.1113242939e-07 -0.076970770955 -7.7708859444 1.5679305534e-06
          4.1939220428 -20.896060944 0.60880666971 -0.071398548782 -19.079874039 -0.66976004839
          -0.054530285299 -5.0223484039 -0.026053112 -1.9737509489 -10.462563515 1.2395459414
          -1.1579180956 -17.248075485 -0.82813513279 -0.097691677511 -19.012605667 -0.31862607598
          -0.37831008434 -16.556983948 0.66381132603 -1.2510017157 -17.103565216 -0.37302678823
          -1.3942505121 -13.16729641 0.52985346317 2.819098711 -21.018297195 0.31168779731
          1.0658107996 -18.61788559 0.64671838284 -1.4685277939 -14.732169151 0.78199541569
          -0.082160748541 -11.233330727 0.050649538636 4.9599871635 -23.740133286 -0.59499019384
          15.872694969 -24.68034935 0.64367979765 0 0 0
          12.993087769 -24.369626999 0.6102835536 -0.106384404 -11.545254707 0.02293921262
          -0.13308490813 -18.976373672 1.3345559182e-06 -0.87399703264 -16.016656876 -1.16578722
          1.5057865381 -21.262844086 -0.6179843545 4.9969482422 -23.737882614 -0.29082992673
          -0.03602712974 -2.5126757622 -0.033363629133 -1.3430711031 -17.025730133 1.4596989786e-06
          7.3577408791 -23.871377945 0.27816933393 -0.074046961963 -7.7108736038 -0.034380584955
          1.5318081379 -21.25214386 -0.29662823677 -0.87498217821 -15.872253418 -0.48521873355
          10.149224281 -24.092329025 0.57523357868 -0.1139953956 -11.645682335 1.7884322006e-06
          5.0254187584 -23.747297287 8.776848972e-07 -0.05778099224 -4.9271969795 -0.0477803424
          1.5421353579 -21.242603302 1.1797259276e-06 16.94534111 -27.596382141 -0.6401720643
          0 0 0 -1.0098419189 -15.750480652 1.4370499457e-06
          16.950302124 -27.623577118 -0.31908333302 0 0 0
          -0.097691774368 -19.012605667 0.31862872839 14.001951218 -27.288276672 -0.60183161497
          -1.3946335316 -13.29981041 1.2420506477 2.7629370689 -21.013736725 0.64724504948
          0.2461630553 -2.3343539238 -0.07912260294 -1.2510015965 -17.103565216 0.37302970886
          14.007781982 -27.314805984 -0.29977494478 0.26747572422 -2.3428514004 -0.041523471475
          7.3427271843 -23.862337112 0.55483615398 16.95341301 -27.631977081 1.3053863768e-07
          -0.10638433695 -11.545254707 -0.022935768589 11.077191353 -27.01197052 -0.56327003241
          0.60026532412 -4.7339892387 0.0032515437342 4.9969482422 -23.737882614 0.29083168507
          0 0 0 3.3993496895 -23.777198792 -0.60834407806
          -0.096937768161 -14.077460289 0.01449946966 -0.073108002543 -7.5182538033 -0.05828647688
          0.75358051062 -4.7676181793 -0.03229014203 11.086507797 -27.033288956 -0.28089043498
          14.010359764 -27.32242012 3.2100723502e-07 1.5318080187 -21.252145767 0.29663059115
          -0.10977084935 -14.40210247 0.0076849879697 3.4379031658 -23.776679993 -0.29258495569
          -0.87498193979 -15.872253418 0.48522162437 0.2972741127 -2.3660342693 4.8457923185e-07
          -0.78813874722 -19.698207855 -0.8452154994 11.089950562 -27.039518356 5.1300571613e-07
          -0.071398712695 -19.079875946 0.66976267099 0.83566743135 -4.8131232262 1.0202606973e-06
          -0.11316780001 -14.322313309 1.676858119e-06 -0.88197177649 -19.55790329 -0.38269123435
          3.4596557617 -23.775606155 1.0279245544e-06 -1.1579180956 -17.248075485 0.82813805342
          16.950302124 -27.623577118 0.31908357143 8.1822719574 -26.774713516 -0.53989291191
          -0.44788047671 -18.427116394 -0.9747698307 0 0 0
          0.83894079924 -7.2121067047 0.17756424844 0.28945583105 -21.618047714 -0.6532073617
          1.3046498299 -7.4671888351 0.18491794169 8.1944351196 -26.786804199 -0.27010774612
          14.007781982 -27.314805984 0.29977557063 -0.45007863641 -18.396244049 -0.4103602469
          0.26736661792 -21.550521851 -0.31580480933 0.26747575402 -2.3428514004 0.041524406523
          -0.082160711288 -11.233330727 -0.050646357238 4.9599871635 -23.740135193 0.59499192238
          -1.0114198923 -19.449090958 1.3698930843e-06 -0.87399709225 -16.016656876 1.1657902002
          1.5057864189 -21.262845993 0.61798667908 8.1990365982 -26.793457031 6.9913983225e-07
          11.086507797 -27.033288956 0.28089147806 -0.64396697283 -18.188894272 1.3664594007e-06
          0.75358057022 -4.7676181793 0.032292168587 1.5103328228 -7.5442037582 1.522065304e-06
          -0.10977075994 -14.40210247 -0.0076817790978 3.4379031658 -23.7766819 0.29258701205
          0.22280399501 -21.511978149 1.2603293271e-06 2.0120267868 -23.936439514 -0.58390283585
          -0.11277030408 -16.604560852 -0.014206261374 2.0174717903 -23.916133881 -0.28178983927
          -0.11633750796 -16.969614029 -0.0044015944004 16.94534111 -27.596382141 0.64017230272
          0 0 0 -0.88197165728 -19.55790329 0.38269397616
          1.834725976 -10.37830162 1.3323742151 5.7791991234 -26.625680923 -0.58413165808
          1.8971142769 -10.265528679 0.66172641516 14.001951218 -27.28827858 0.60183221102
          0.24616354704 -2.3343536854 0.079123549163 5.8106365204 -26.623472214 -0.28190988302
          8.1944351196 -26.786806107 0.27010914683 -0.45007845759 -18.396244049 0.41036292911
          1.3046499491 -7.4671888351 -0.18491496146 0.2673664391 -21.550521851 0.31580731273
          2.0069055557 -23.897022247 1.1417677115e-06 -0.11919460446 -16.75412178 1.5641485334e-06
          11.077191353 -27.01197052 0.56327098608 0.60026592016 -4.7339887619 -0.0032495988999
          3.3993496895 -23.777198792 0.60834610462 1.9157156944 -10.223897934 1.7967878421e-06
          -0.09693761915 -14.077460289 -0.014496722259 5.8335642815 -26.629209518 8.7069554411e-07
          18.014972687 -30.571130753 -0.64098566771 0 0 0
          -0.78813874722 -19.698207855 0.84521824121 2.0174717903 -23.916133881 0.28179210424
          0 0 0 15.000748634 -30.263084412 -0.59681326151
          -0.08541791141 -20.542005539 -0.75655400753 -0.11633747071 -16.969614029 0.004404626321
          0.44693371654 -1.8062757254 -0.062550611794 -0.31912240386 -22.082139969 -0.80883234739
          18.017681122 -30.602888107 -0.31963735819 8.1822719574 -26.774715424 0.53989428282
          15.004542351 -30.293952942 -0.29756817222 0.52445787191 -1.8753083944 -0.1337557584
          -0.44788056612 -18.427116394 0.97477257252 -0.10854469985 -20.625717163 -0.33612123132
          0.83894127607 -7.2121062279 -0.17756153643 4.0800871849 -26.572498322 -0.57575786114
          1.8971141577 -10.265528679 -0.66172283888 0.28945547342 -21.618047714 0.65320980549
          1.2330836058 -13.283072472 1.3246231079 5.8106365204 -26.623474121 0.28191161156
          -0.40204885602 -22.006830215 -0.37291029096 1.2223753929 -13.138578415 0.56702625751
          4.1005921364 -26.570579529 -0.27852791548 11.994439125 -29.984313965 -0.55333673954
          18.020139694 -30.612833023 7.798846724e-08 1.1916054487 -4.0267572403 -0.036316294223
          0 0 0 12.002801895 -30.01052475 -0.27601501346
          1.3948307037 -4.0685873032 -0.01163105201 15.00642395 -30.303180695 2.7927580959e-07
          0.70534604788 -24.170564651 -0.6121353507 -0.31629601121 -20.430051804 1.3430941408e-06
          -0.55977070332 -21.902694702 1.3108611938e-06 -0.12297106534 -18.836053848 -0.025728849694
          0.48848304152 -2.0044300556 3.9781562577e-07 0.6698359251 -24.119207382 -0.30140730739
          4.1073412895 -26.564014435 1.0177403738e-06 -0.12299185246 -19.187210083 -0.011608790606
          1.2700289488 -13.118857384 1.8620158926e-06 2.0120267868 -23.936439514 0.58390510082
          12.005788803 -30.018503189 4.8446145229e-07 -0.11277044564 -16.604562759 0.014209142886
          1.4362027645 -4.0935959816 9.073865499e-07 9.0173006058 -29.739770889 -0.52243363857
          18.017681122 -30.602888107 0.319637537 0.60539841652 -24.082250595 1.209849529e-06
          2.3989958763 -6.5774283409 0.62872070074 1.8347257376 -10.378300667 -1.3323707581
          -0.12714211643 -18.991250992 1.4620212596e-06 5.7791991234 -26.625680923 0.58413338661
          0 0 0 9.0281143188 -29.757505417 -0.26154100895
          2.6178088188 -6.6063728333 0.36399075389 15.004542351 -30.293952942 0.29756870866
          -0.10854450613 -20.625717163 0.33612385392 -0.40204882622 -22.006830215 0.37291285396
          0.52445787191 -1.8753082752 0.13375651836 4.1005921364 -26.570579529 0.27852994204
          1.2223752737 -13.138578415 -0.56702268124 12.002801895 -30.01052475 0.27601599693
          9.0308418274 -29.765245438 6.901906886e-07 2.5621328354 -26.636892319 -0.55213958025
          0.68802428246 -16.049825668 1.2155506611 2.6486587524 -6.6144294739 1.449227625e-06
          1.3948305845 -4.0685868263 0.01163284108 0.67847216129 -15.906971931 0.50734180212
          0.6698358655 -24.119207382 0.30140972137 2.5516824722 -26.616621017 -0.27131050825
          -0.12299180031 -19.187210083 0.011611627415 6.6552686691 -29.564853668 -0.569185853
          18.014972687 -30.57113266 0.64098578691 0 0 0
          2.2999725342 -9.1737928391 0.79413473606 6.6798996925 -29.563755035 -0.2723441124
          15.000747681 -30.263084412 0.59681379795 2.2731738091 -9.2301845551 0.37887722254