<?xml version="1.0"?>
<VTKFile type="UnstructuredGrid" version="0.1" byte_order="LittleEndian" header_type="UInt32" compressor="vtkZLibDataCompressor">
  <UnstructuredGrid>
    <Piece NumberOfPoints="6405" NumberOfCells="4800">
      <PointData>
        <DataArray type="Float32" Name="DISPLACEMENT" NumberOfComponents="3" ComponentName0="X-DISPLACEMENT" ComponentName1="Y-DISPLACEMENT" ComponentName2="Z-DISPLACEMENT" format="ascii" RangeMin="0" RangeMax="607.92090801">
          0 0 0 0 0 0
          3.449480772 -2.0246138573 -1.6285312176 0 0 0
          2.3328652382 -1.1267350912 -1.3254914284 0 0 0
          3.1255369186 -2.2086539268 -0.64971292019 2.0200352669 -1.2786653042 -0.54309809208
          0 0 0 6.3303627968 -3.5845243931 -1.7631642818
          0 0 0 6.2004156113 -3.8178975582 -0.90441036224
          4.7844791412 -2.8320090771 -1.5234289169 0 0 0
          0 0 0 3.1517839432 -2.280734539 5.6031588258e-08
          1.8431507349 -0.72619223595 -1.1223050356 2.0312311649 -1.3124822378 1.7109199391e-08
          4.6549921036 -3.0117533207 -0.77172422409 1.5953624249 -0.85814034939 -0.45738717914
          6.1347007751 -3.8803319931 2.8762526583e-08 3.6758005619 -2.2247748375 -1.2687513828
          0 0 0 4.5964159966 -3.0738780499 -3.5262196718e-08
          3.563659668 -2.3856847286 -0.64739912748 0 0 0
          9.1394739151 -5.5696563721 -1.7638090849 0 0 0
          1.6100047827 -0.88822579384 -4.3435264274e-09 0 0 0
          0 0 0 3.1255366802 -2.2086539268 0.6497130394
          7.2108769417 -4.7900567055 -1.5235167742 9.1118326187 -5.7577939034 -0.89329993725
          1.4291236401 -0.51811784506 -0.90422385931 2.0200352669 -1.278665185 0.54309809208
          7.1862664223 -4.9671859741 -0.77189064026 1.2302914858 -0.64587450027 -0.37210354209
          3.5120780468 -2.4361438751 -8.1734171431e-08 6.2004156113 -3.8178975582 0.90441042185
          0 0 0 0 0 0
          2.8124966621 -1.8602099419 -1.0312132835 5.631383419 -4.1651568413 -1.2884821892
          9.0782594681 -5.8238472939 -5.9401273234e-08 4.6549921036 -3.0117533207 0.77172416449
          5.5980453491 -4.3321418762 -0.65254914761 1.5953623056 -0.85814028978 0.45738714933
          7.1554808617 -5.0250697136 -1.465629822e-07 2.7185249329 -2.0137984753 -0.5248015523
          1.2452760935 -0.67159813643 -1.8755248021e-08 0 0 0
          11.927409172 -7.8647093773 -1.7001991272 0 0 0
          9.6362352371 -7.0970554352 -1.4826465845 3.5636594296 -2.3856844902 0.64739894867
          11.936998367 -8.0312519073 -0.85740786791 3.4494805336 -2.0246138573 1.6285312176
          0 0 0 0 0 0
          2.6774423122 -2.0613760948 -1.1605543904e-07 5.5698289871 -4.3839740753 -2.1537445605e-07
          1.0399110317 -0.41604182124 -0.68640071154 9.6447057724 -7.2597141266 -0.74677497149
          2.3328652382 -1.126734972 1.3254913092 4.2938504219 -3.7226521969 -1.0535639524
          0 0 0 9.1118326187 -5.7577939034 0.89329981804
          0.8836812377 -0.5400184989 -0.28348991275 4.25760746 -3.8810577393 -0.5340860486
          7.1862664223 -4.9671854973 0.77189028263 1.2302913666 -0.64587444067 0.37210348248
          7.6352972984 -6.4603490829 -1.2661715746 2.0279536247 -1.6703220606 -0.80064153671
          11.923548698 -8.0875921249 -2.089705049e-07 6.3303623199 -3.5845241547 1.7631642818
          0 0 0 0 0 0
          7.6327090263 -6.6189508438 -0.63773798943 4.7844786644 -2.8320088387 1.5234287977
          9.6349048615 -7.3139533997 -3.1584522731e-07 1.9462343454 -1.816173315 -0.40650096536
          1.8431506157 -0.72619211674 1.1223049164 0.89579379559 -0.56475019455 -2.8498604365e-08
          4.2312350273 -3.9285197258 -2.7025998861e-07 5.5980453491 -4.3321413994 0.65254867077
          2.7185249329 -2.0137984753 0.52480125427 7.6212940216 -6.6699428558 -4.0425592829e-07
          3.6758000851 -2.2247745991 1.2687511444 1.9131791592 -1.8617517948 -1.4190797515e-07
          5.8644146919 -5.9866361618 -1.0521261692 11.936997414 -8.0312509537 0.85740745068
          9.1394729614 -5.5696558952 1.7638089657 0 0 0
          14.664038658 -10.482967377 -1.6465392113 0 0 0
          0 0 0 3.0965993404 -3.4683001041 -0.83550858498
          5.8514237404 -6.1378016472 -0.529697299 14.682587624 -10.633332253 -0.82594996691
          12.034625053 -9.7256212234 -1.446228981 9.6447057724 -7.2597141266 0.74677431583
          0.6680315733 -0.4057341516 -0.47982335091 0 0 0
          7.2108764648 -4.7900562286 1.5235164165 1.4291234016 -0.51811778545 0.9042237401
          3.0562829971 -3.6142792702 -0.42233338952 0.88368111849 -0.54001843929 0.28348982334
          0.54698908329 -0.52349019051 -0.19896687567 4.25760746 -3.8810577393 0.53408551216
          12.05123806 -9.875702858 -0.7252073288 7.6327085495 -6.6189508438 0.63773715496
          5.8386282921 -6.1854758263 -4.7738546982e-07 14.680675507 -10.684293747 -4.2147536305e-07
          1.2892246246 -1.6254673004 -0.58981442451 1.9462339878 -1.8161731958 0.40650066733
          0 0 0 9.6539821625 -9.08822155 -1.2476063967
          2.8124961853 -1.8602098227 1.0312130451 5.6313829422 -4.1651563644 1.2884817123
          3.0322973728 -3.6584820747 -3.1333976835e-07 12.05136013 -9.9256258011 -5.4494239521e-07
          0.5531052351 -0.54843360186 -3.4061024223e-08 1.2134588957 -1.7584341764 -0.29728260636
          9.6603441238 -9.235868454 -0.62516033649 11.927408218 -7.8647089005 1.7001986504
          0 0 0 4.2565579414 -5.6857442856 -0.85145437717
          9.6362342834 -7.0970549583 1.4826458693 1.1860489845 -1.8013908863 -1.6081347098e-07
          4.2345666885 -5.8237352371 -0.42801350355 9.658454895 -9.284406662 -6.5019708018e-07
          1.0399107933 -0.41604176164 0.68640053272 5.8514232635 -6.1378011703 0.52969634533
          7.4861578941 -8.5947151184 -1.0511130095 14.68258667 -10.633332253 0.82594907284
          1.9847693443 -3.3840053082 -0.64334487915 4.2938499451 -3.7226519585 1.0535633564
          0 0 0 3.0562825203 -3.6142792702 0.42233273387
          7.4823613167 -8.7363958359 -0.52656370401 0.54698896408 -0.52349019051 0.19896678627
          1.9379206896 -3.5106489658 -0.32318800688 12.051237106 -9.875702858 0.72520619631
          7.6352963448 -6.4603490829 1.2661707401 2.0279531479 -1.6703219414 0.80064117908
          17.345808029 -13.403394699 -1.6048945189 0 0 0
          4.2206497192 -5.8673582077 -5.3767200825e-07 14.400132179 -12.657990456 -1.4181603193
          17.364175797 -13.542980194 -0.80315452814 0 0 0
          0.32574906945 -0.49081918597 -0.29114493728 14.416660309 -12.797766685 -0.70962423086
          7.4778103828 -8.7823181152 -7.3977878401e-07 0.23036982119 -0.60134208202 -0.12275571376
          1.2134586573 -1.7584341764 0.29728224874 1.9155011177 -3.549705267 -3.4730581433e-07
          9.6603441238 -9.235868454 0.62515896559 11.671390533 -12.022076607 -1.2333645821
          0.60834652185 -1.7269642353 -0.40657308698 17.366512299 -13.589754105 -6.9483616016e-07
          0 0 0 0.52979427576 -1.838108182 -0.20404884219
          11.67980957 -12.1600914 -0.61669069529 14.420293808 -12.844347 -8.3258140648e-07
          0.22626574337 -0.62815797329 -3.7691954446e-08 5.8644137383 -5.986635685 1.0521250963
          5.4925260544 -8.2588186264 -0.86611944437 14.664036751 -10.482967377 1.6465382576
          0 0 0 2.7743251324 -5.5580821037 -0.67820876837
          4.2345662117 -5.8237352371 0.42801243067 3.0965986252 -3.4682998657 0.83550792933
          12.0346241 -9.7256202698 1.4462279081 0.66803127527 -0.4057341516 0.47982317209
          2.7440943718 -5.6751232147 -0.33948972821 5.479891777 -8.3885498047 -0.43346166611
          7.482360363 -8.7363958359 0.5265622139 1.9379202127 -3.5106489658 0.32318729162
          11.681563377 -12.205867767 -9.5239096254e-07 0.5049726367 -1.8770028353 -1.7352027726e-07
          9.1403303146 -11.51561451 -1.0507808924 0.96998733282 -3.4689440727 -0.48882246017
          1.2892240286 -1.6254671812 0.58981400728 17.364175797 -13.542980194 0.80315315723
          9.6539812088 -9.0882205963 1.2476050854 0 0 0
          5.4732003212 -8.4308052063 -8.1501656268e-07 2.7293918133 -5.7129964828 -5.8624675603e-07
          9.1404848099 -11.648605347 -0.52523708344 14.416659355 -12.797765732 0.70962256193
          0.91333401203 -3.564879179 -0.24525134265 0.23036968708 -0.60134208202 0.1227556169
          4.2565569878 -5.6857442856 0.85145318508 9.1398124695 -11.69235611 -1.0562034731e-06
          11.679808617 -12.1600914 0.61668878794 0.52979403734 -1.838108182 0.20404846966
          0.89180666208 -3.5974049568 -3.7226183736e-07 19.977128983 -16.611444473 -1.5730352402
          0 0 0 19.992935181 -16.743247986 -0.78642117977
          7.4861564636 -8.5947151184 1.0511114597 16.733474731 -15.876673698 -1.3963006735
          1.9847685099 -3.3840053082 0.64334410429 3.6530501842 -8.0845384598 -0.70541059971
          -0.089039154351 -0.67582112551 -0.12032360584 2.744093895 -5.6751232147 0.33948853612
          5.4798913002 -8.388548851 0.43345999718 0 0 0
          16.74782753 -16.0086689 -0.698151052 3.6339068413 -8.1951522827 -0.35205852985
          -0.17883017659 -0.77449333668 -0.061922267079 6.7883586884 -11.151021957 -0.87777107954
          1.4356561899 -5.6034026146 -0.5445535183 17.345808029 -13.403393745 1.6048930883
          0 0 0 14.400130272 -12.657990456 1.4181585312
          19.996313095 -16.787151337 -1.0291352055e-06 1.3988237381 -5.6899147034 -0.27290666103
          6.7814564705 -11.273866653 -0.43846058846 0.32574877143 -0.49081921577 0.29114475846
          13.681792259 -15.243204117 -1.2218949795 -0.14098888636 -1.9504435062 -0.28698167205
          0 0 0 9.1404838562 -11.648605347 0.52523493767
          0.9133336544 -3.564879179 0.2452505827 16.752054214 -16.052604675 -1.1790295957e-06
          3.6256210804 -8.2320594788 -8.7754864353e-07 13.690099716 -15.373613358 -0.61047106981
          -0.22705556452 -2.0293006897 -0.14393019676 -0.19664716721 -0.80854296684 -3.3918919229e-08
          11.671388626 -12.022075653 1.2333625555 0.60834592581 -1.7269642353 0.40657263994
          6.7787661552 -11.314423561 -1.1451296587e-06 1.3838008642 -5.7211647034 -6.2433355197e-07
          5.4925251007 -8.2588186264 0.86611771584 13.69288063 -15.417032242 -1.3114247395e-06
          -0.24658881128 -2.067253828 -1.7752510928e-07 2.7743241787 -5.5580816269 0.67820751667
          19.992935181 -16.743247986 0.78641909361 10.815141678 -14.727164268 -1.0496683121
          0 0 0 -0.047992628068 -3.6933264732 -0.40797489882
          10.817286491 -14.853282928 -0.52428001165 16.747825623 -16.0086689 0.69814866781
          -0.17883035541 -0.77449333668 0.061922173947 3.633906126 -8.1951522827 0.35205674171
          -0.10769188404 -3.7513101101 -0.20383167267 9.140329361 -11.51561451 1.0507786274
          4.615439415 -10.932602882 -0.72440564632 6.7814559937 -11.2738657 0.43845829368
          0.96998649836 -3.4689438343 0.48882162571 1.3988231421 -5.6899142265 0.27290537953
          2.0041241646 -8.077501297 -0.57909178734 4.6039004326 -11.039237022 -0.36166808009
          10.818181992 -14.895035744 -1.4277298988e-06 13.690098763 -15.373613358 0.61046844721
          -0.22705589235 -2.0293006897 0.14392982423 1.9820423126 -8.1619405746 -0.29060330987
          -0.12484963238 -3.7801165581 -3.8762274812e-07 22.566080093 -20.094913483 -1.5484519005
          0 0 0 -0.38380163908 -1.0387890339 -0.067629501224
          4.5998983383 -11.075415611 -1.2196768466e-06 8.1303911209 -14.339478493 -0.88566887379
          19.038427353 -19.369091034 -1.3788900375 19.977127075 -16.611442566 1.5730330944
          0 0 0 0 0 0
          1.9732764959 -8.1936101913 -9.2752213732e-07 0.18662565947 -5.7848434448 -0.47689425945
          22.579061508 -20.221212387 -0.77383947372 8.1274023056 -14.457029343 -0.44213169813
          19.05034256 -19.495414734 -0.68930882215 16.733472824 -15.876673698 1.3962982893
          -0.47918218374 -1.1106235981 -0.042109325528 3.6530487537 -8.0845384598 0.70540875196
          -0.089039541781 -0.67582118511 0.12032341212 0.15176993608 -5.8407993317 -0.23855671287
          10.817285538 -14.853282928 0.52427715063 -0.10769234598 -3.7513101101 0.20383088291
          15.683300018 -18.738014221 -1.2119834423 6.7883572578 -11.151021004 0.87776869535
          1.435655117 -5.6034026146 0.54455220699 0 0 0
          -0.60930585861 -2.430188179 -0.3228906095 22.582332611 -20.263114929 -1.4224409597e-06
          -0.49446412921 -1.1638782024 -1.8535436297e-08 8.1267757416 -14.496188164 -1.5285103245e-06
          15.690914154 -18.862817764 -0.60540902615 13.681790352 -15.243204117 1.2218923569
          19.054174423 -19.537406921 -1.5833196585e-06 -0.14098955691 -1.9504435062 0.28698122501
          0.13929226995 -5.868332386 -6.514773645e-07 -0.69028866291 -2.4643733501 -0.14715251327
          4.6038994789 -11.039237022 0.3616656065 1.9820417166 -8.1619405746 0.29060143232
          2.6589846611 -10.857756615 -0.60168534517 15.69370842 -18.904415131 -1.7271968318e-06
          -0.7011885643 -2.5005455017 -1.6887733523e-07 2.6465082169 -10.943416595 -0.3022480011
          12.503203392 -18.214468002 -1.0472151041 0 0 0
          -0.64679294825 -4.1282849312 -0.43528065085 22.579059601 -20.221212387 0.7738366127
          -0.47918239236 -1.1106237173 0.042109262198 8.1274013519 -14.457029343 0.44212862849
          12.506467819 -18.335577011 -0.52297514677 10.815140724 -14.727164268 1.0496653318
          19.050340652 -19.495412827 0.68930566311 5.6432566643 -14.085588455 -0.73875653744
          0.54684823751 -8.1957397461 -0.5104662776 -0.047993548214 -3.6933264732 0.40797403455
          -0.68925195932 -4.1618270874 -0.20945394039 0.15176935494 -5.8407993317 0.23855540156
          5.6373634338 -14.189732552 -0.36871233582 0.52895897627 -8.2591247559 -0.25579196215
          2.6425888538 -10.976198196 -1.2801823459e-06 4.6154379845 -10.932602882 0.72440314293
          15.6909132 -18.862817764 0.60540550947 2.0041227341 -8.077501297 0.57908987999
          12.507922173 -18.375787735 -1.8545172225e-06 -0.69028902054 -2.4643733501 0.14715214074
          -0.70272022486 -4.1854844093 -3.9119063899e-07 5.6359024048 -14.225714684 -1.6136282284e-06
          0.52195489407 -8.2885818481 -9.6581050002e-07 -0.52558779716 -6.1260871887 -0.46926873922
          9.5066823959 -17.807327271 -0.88941079378 22.566080093 -20.094911575 1.5484490395
          0 0 0 2.6465075016 -10.943416595 0.3022454381
          -0.38380205631 -1.0387892723 0.06762932986 -0.54153686762 -6.1813306808 -0.23077191412
          8.1303892136 -14.339478493 0.88566577435 19.038425446 -19.369091034 1.3788868189
          9.5065393448 -17.921396255 -0.44402006269 25.120910645 -23.845205307 -1.5294430256
          0 0 0 0.18662452698 -5.7848434448 0.47689288855
          25.131410599 -23.967723846 -0.76422935724 -0.54464364052 -1.5881072283 -0.15589958429
          21.319400787 -23.12661171 -1.3648059368 12.506466866 -18.335577011 0.52297139168
          0 0 0 -0.68925243616 -4.1618275642 0.20945313573
          21.329154968 -23.248975754 -0.68227607012 -0.60961270332 -1.648460269 -0.071076713502
          5.637362957 -14.189732552 0.36870908737 0.52895832062 -8.2591247559 0.25578999519
          15.683299065 -18.738014221 1.211979866 -0.551191926 -6.2064089775 -6.6646651931e-07
          9.506934166 -17.959522247 -1.9650294689e-06 -0.60930663347 -2.4301884174 0.32289019227
          3.4122896194 -13.963404655 -0.61990147829 -0.69904386997 -3.0145208836 -0.35386100411
          17.675636292 -22.497642517 -1.2031165361 1.0146347284 -10.904966354 -0.52954751253
          25.134281158 -24.008268356 -1.8746777641e-06 0 0 0
          3.4073522091 -14.052210808 -0.30950430036 21.332378387 -23.28959465 -2.0453428533e-06
          -0.60307371616 -1.7097096443 2.6119794327e-08 17.68245697 -22.618509293 -0.6010017395
          -0.72705942392 -3.0776104927 -0.15443836153 1.0080579519 -10.977622986 -0.26379612088
          2.6589832306 -10.857756615 0.60168266296 3.4061057568 -14.085763931 -1.6831936591e-06
          -0.28724476695 -8.4315633774 -0.46569082141 -0.54153746367 -6.1813306808 0.23077057302
          6.7233848572 -17.52038002 -0.74556690454 17.684972763 -22.658809662 -2.1989737888e-06
          12.503201485 -18.214468002 1.0472114086 9.5065383911 -17.921394348 0.44401609898
          1.0049877167 -11.009195328 -1.3285258547e-06 -0.72844111919 -3.0973846912 -1.3656598696e-07
          -0.64679390192 -4.1282849312 0.43527981639 25.131408691 -23.967723846 0.76422560215
          14.199438095 -21.968034744 -1.0434864759 -0.28845092654 -8.5080528259 -0.23195275664
          -0.68341910839 -4.5923576355 -0.37064406276 6.7219233513 -17.624002457 -0.37224966288
          5.6432547569 -14.085588455 0.73875325918 0.54684686661 -8.1957397461 0.51046431065
          0 0 0 -0.68911260366 -4.6873731613 -0.17662352324
          21.329154968 -23.248973846 0.6822719574 -0.60961294174 -1.6484603882 0.071076728404
          14.203327179 -22.085731506 -0.52115571499 -0.29357880354 -8.5376272202 -9.8982275176e-07
          6.721783638 -17.659706116 -2.0587842755e-06 3.4073512554 -14.052210808 0.30950093269
          14.204936981 -22.124866486 -2.3353857159e-06 -0.697270751 -4.700419426 -3.73357949e-07
          17.68245697 -22.618507385 0.60099732876 -0.72705984116 -3.0776104927 0.1544380635
          1.0080572367 -10.977622986 0.26379346848 -0.52558892965 -6.1260871887 0.46926733851
          9.5066814423 -17.807325363 0.88940680027 10.908655167 -21.544336319 -0.88963139057
          25.120908737 -23.845205307 1.5294392109 0 0 0
          -0.58174496889 -6.4584164619 -0.3439950645 -0.54464417696 -1.5881074667 0.15589946508
          21.31939888 -23.12661171 1.3648017645 -0.28845158219 -8.5080528259 0.23195075989
          6.7219223976 -17.624002457 0.37224552035 10.910403252 -21.656377792 -0.44422051311
          1.5842926502 -13.94970417 -0.53002202511 -0.57694882154 -6.5817961693 -0.16995730996
          -0.6891130805 -4.6873731613 0.17662274837 14.203326225 -22.085731506 0.52115100622
          1.5863450766 -14.032691002 -0.26418712735 4.2320127487 -17.349142075 -0.62236773968
          0.032090526074 -11.052188873 -0.44836807251 27.6489048 -27.856744766 -1.5147422552
          0 0 0 23.580507278 -27.143911362 -1.3533091545
          3.4122879505 -13.963403702 0.61989808083 -0.69904464483 -3.0145208836 0.35386061668
          17.675634384 -22.497642517 1.2031121254 0.038803804666 -11.144529343 -0.22448594868
          4.2326955795 -17.442089081 -0.31110340357 1.0146331787 -10.904965401 0.52954477072
          27.657390594 -27.976789474 -0.75683248043 0 0 0
          -0.58294117451 -6.604133606 -6.6098181151e-07 10.911333084 -21.693853378 -2.4544999633e-06
          0.0031795324758 -2.04423666 -0.0015344264684 23.588495255 -27.263631821 -0.67657595873
          0.0032787502278 -2.1534528732 -0.00067917420529 1.5852375031 -14.065420151 -1.737904654e-06
          19.659057617 -26.516796112 -1.1950976849 0.03678791225 -11.177202225 -1.3590600929e-06
          4.2325878143 -17.476013184 -2.1357641344e-06 27.659852982 -28.016437531 -2.3839804726e-06
          0 0 0 0.00403058948 -3.3479752541 -0.0011563379085
          19.66513443 -26.635019302 -0.59705096483 23.591156006 -27.303325653 -2.5631748031e-06
          -0.28724610806 -8.4315633774 0.46568876505 6.7233829498 -17.52038002 0.74556273222
          0.0033090289216 -2.1885135174 8.7670422033e-08 0.0040767327882 -3.4880318642 -0.00058475817787
          14.199435234 -21.968034744 1.0434817076 -0.68342006207 -4.5923576355 0.37064319849
          -0.42917010188 -8.6562547684 -0.3093457818 7.844848156 -21.228633881 -0.74670356512
          -0.57694935799 -6.5817961693 0.16995596886 10.910402298 -21.656377792 0.44421559572
          -0.41986775398 -8.7940206528 -0.15546438098 7.8461623192 -21.33275795 -0.3729005754
          1.5863442421 -14.032691002 0.26418364048 19.667333603 -26.674444199 -2.7255468922e-06
          0.004062098451 -3.4886801243 -9.6003923034e-08 15.900089264 -25.982538223 -1.0388902426
          0.038803052157 -11.144529343 0.22448322177 4.2326946259 -17.442089081 0.31109911203
          27.657388687 -27.976789474 0.75682765245 0 0 0
          0.0044878316112 -4.807788372 -0.0010899677873 15.904256821 -26.098007202 -0.51892834902
          23.588493347 -27.263631821 0.67657083273 0.0044732051902 -4.9730010033 -0.00055241386872
          -0.42271903157 -8.8256177902 -9.9461021819e-07 7.8468060493 -21.368404388 -2.5556184937e-06
          0.0032784712967 -2.1534528732 0.00067928165663 19.66513443 -26.635019302 0.5970454812
          15.905872345 -26.136440277 -2.8706508601e-06 0.0044591338374 -4.9795565605 -3.4645785263e-07
          10.908653259 -21.544334412 0.88962638378 2.1962654591 -17.27684021 -0.51567173004
          0.0040763444267 -3.4880318642 0.00058451708173 -0.58174616098 -6.4584164619 0.34399366379
          0.40796017647 -14.004184723 -0.4213104248 2.2026863098 -17.367753983 -0.25835648179
          1.5842909813 -13.949703217 0.53001844883 0.41839051247 -14.106640816 -0.21233718097
          -0.41986840963 -8.7940206528 0.15546236932 7.8461613655 -21.33275795 0.3728954196
          4.2320108414 -17.349140167 0.62236338854 0.032088998705 -11.052188873 0.44836530089
          0.0048165176995 -6.5995388031 -0.0011393483728 12.328874588 -25.54565239 -0.8875362277
          27.648902893 -27.856742859 1.5147374868 0 0 0
          23.580505371 -27.143911362 1.3533039093 0.0047627720051 -6.7770667076 -0.00057767989347
          2.2029221058 -17.4016819 -2.1959306196e-06 -0.24530827999 -11.196265221 -0.27695056796
          5.1003708839 -21.016901016 -0.61881625652 12.331715584 -25.656555176 -0.44325378537
          0.003178976709 -2.04423666 0.0015343062114 0.41825741529 -14.141518593 -1.7745070409e-06
          15.904254913 -26.098007202 0.51892256737 0.0044727367349 -4.9730010033 0.00055168371182
          5.1037163734 -21.113630295 -0.30929401517 -0.23452614248 -11.338459015 -0.14005041122
          19.65905571 -26.516794205 1.1950922012 0.0047448975965 -6.7988948822 -6.4568286007e-07
          12.332911491 -25.693651199 -2.9977263694e-06 0.0040297880769 -3.3479752541 0.0011559545528
          5.1044983864 -21.148061752 -2.6390430321e-06 30.156002045 -32.126350403 -1.5033357143
          0 0 0 -0.23525637388 -11.375498772 -1.3727221813e-06
          30.162919998 -32.244880676 -0.75109857321 0 0 0
          2.2026853561 -17.367752075 0.25835210085 25.825223923 -31.418113708 -1.3438431025
          -0.42917141318 -8.6562547684 0.30934372544 7.8448462486 -21.228631973 0.74669837952
          0.54950410128 -1.5892026424 0.15347839892 0.418389678 -14.106640816 0.21233361959
          25.831817627 -31.536165237 -0.6718930006 0.61449152231 -1.6498619318 0.070052020252
          15.900087357 -25.982536316 1.0388844013 30.16503334 -32.28396225 -2.9498589811e-06
          0.0047622215934 -6.7770667076 0.0005763573572 21.633955002 -30.792711258 -1.187831521
          0.70609992743 -3.0157620907 0.35191223025 12.33171463 -25.656555176 0.4432477951
          0 0 0 8.9961051941 -25.207136154 -0.74476504326
          0.0050588888116 -8.7486009598 -0.0012461096048 0.0044868513942 -4.807788372 0.001089132973
          0.73416239023 -3.0791251659 0.15345032513 21.639375687 -30.909240723 -0.5934741497
          25.834024429 -31.575265884 -3.1371873774e-06 5.1037149429 -21.113630295 0.30928874016
          0.0049801119603 -8.9264163971 -0.00063290249091 8.9988193512 -25.311988831 -0.37199944258
          -0.23452687263 -11.338459015 0.14004763961 0.60809582472 -1.711122036 7.4036393016e-08
          0.83128082752 -17.272462845 -0.39625200629 21.641294479 -30.948106766 -3.3077890293e-06
          2.1962635517 -17.27684021 0.51566725969 0.73552042246 -3.0989432335 -8.7147228101e-08
          0.0049582207575 -8.9599704742 -9.9079750271e-07 0.84248864651 -17.379919052 -0.19922764599
          8.9998817444 -25.347700119 -3.1059796584e-06 0.40795844793 -14.004184723 0.42130681872
          30.162918091 -32.244880676 0.75109267235 17.602027893 -30.255186081 -1.0338554382
          -0.038508377969 -14.07859993 -0.24849236012 0 0 0
          0.69169431925 -4.5938816071 0.36877691746 2.8461110592 -20.896589279 -0.50176364183
          0.69734740257 -4.6891527176 0.17567993701 17.6062603 -30.369247437 -0.51646482944
          25.83181572 -31.536165237 0.67188668251 -0.027821838856 -14.219161987 -0.12574398518
          2.853467226 -20.99297905 -0.25118306279 0.61449128389 -1.6498616934 -0.070051915944
          0.0048153633252 -6.5995383263 0.0011379402131 12.328872681 -25.54565239 0.88753020763
          0.84354311228 -17.416353226 -2.2387762328e-06 -0.24530978501 -11.196265221 0.27694773674
          5.1003684998 -21.016901016 0.61881095171 17.607818604 -30.407241821 -3.4607840007e-06
          21.639373779 -30.909240723 0.59346753359 -0.027444705367 -14.258919716 -1.796953029e-06
          0.734161973 -3.0791249275 -0.15345053375 0.70547968149 -4.7022538185 -3.3591399529e-07
          0.0049794754013 -8.9264163971 0.00063089409377 8.9988174438 -25.311988831 0.37199321389
          2.8546459675 -21.02771759 -2.7046969535e-06 6.0033521652 -24.963371277 -0.61321794987
          0.0052164411172 -11.254711151 -0.0013845436042 6.0076022148 -25.062982559 -0.30648031831
          0.0051221628673 -11.425862312 -0.00070470984792 30.156000137 -32.126350403 1.5033297539
          0 0 0 0.84248769283 -17.379919052 0.19922314584
          0.59081465006 -6.4602851868 0.34201046824 13.760663033 -29.808738708 -0.8840649128
          0.58591127396 -6.5839285851 0.16895532608 25.825220108 -31.418111801 1.3438367844
          0.54950356483 -1.589202404 -0.15347841382 13.764087677 -29.918985367 -0.44160434604
          17.606258392 -30.369245529 0.51645791531 -0.02782265842 -14.219161987 0.1257403791
          0.69734692574 -4.6891527176 -0.17568063736 2.8534660339 -20.99297905 0.25117763877
          6.0087838173 -25.097852707 -3.1956155908e-06 0.0050969435833 -11.465615273 -1.3796108078e-06
          21.633953094 -30.792709351 1.1878248453 0.70609909296 -3.0157618523 -0.35191252828
          8.9961032867 -25.207136154 0.74475872517 0.59187155962 -6.6063213348 -6.4018951207e-07
          0.0050575593486 -8.7486009598 0.0012440269347 13.765408516 -29.955888748 -3.5954949453e-06
          32.646789551 -36.652572632 -1.4943832159 0 0 0
          0.83127892017 -17.272462845 0.39624744654 6.0076012611 -25.062982559 0.30647391081
          0 0 0 28.056329727 -35.948047638 -1.3359501362
          0.18529681861 -17.293029785 -0.224696666 0.0051214373671 -11.425862312 0.0007019265322
          0.38705161214 -1.039840579 0.065887995064 1.2806987762 -20.843530655 -0.37354022264
          32.652519226 -36.770252228 -0.7465955615 17.602025986 -30.255184174 1.0338485241
          28.061855316 -36.065120697 -0.66798889637 0.48234331608 -1.1119740009 0.041408762336
          -0.038510069251 -14.07859993 0.24848869443 0.19482979178 -17.429393768 -0.11372403055
          0.69169330597 -4.5938816071 -0.36877772212 10.167736053 -29.453138351 -0.74148374796
          0.58591073751 -6.5839285851 -0.16895663738 2.8461089134 -20.896589279 0.50175815821
          0.43878060579 -8.6585359573 0.30714130402 13.764086723 -29.918983459 0.44159716368
          1.2909985781 -20.953296661 -0.187657848 0.42932698131 -8.7965812683 0.15435051918
          10.171143532 -29.558595657 -0.3703956306 23.600719452 -35.324268341 -1.1812365055
          32.654354095 -36.808998108 -3.5722187022e-06 0.61465913057 -2.4318211079 0.3214122951
          0 0 0 23.605575562 -35.439777374 -0.59021782875
          0.69567030668 -2.4662909508 0.14641046524 28.063709259 -36.103858948 -3.7674196847e-06
          3.5253705978 -24.804821014 -0.48893645406 0.19577495754 -17.469852448 -2.2691867798e-06
          1.292443037 -20.990327835 -2.7534804303e-06 0.0052735516801 -14.110915184 -0.0015411246568
          0.49776145816 -1.1652827263 2.6853863133e-08 3.532394886 -24.904844284 -0.24468483031
          10.172394753 -29.594419479 -3.7110182802e-06 0.0051709678955 -14.272400856 -0.00078587420285
          0.43213894963 -8.8282384872 -9.9262774711e-07 6.003349781 -24.963371277 0.61321145296
          23.607257843 -35.478302002 -3.9458550418e-06 0.005214933306 -11.254711151 0.0013816924766
          0.70655089617 -2.5025286674 -1.1596646488e-07 19.302934647 -34.784584045 -1.0285953283
          32.652519226 -36.770252228 0.74658834934 3.5338010788 -24.940113068 -3.2670959627e-06
          0.65352368355 -4.1306505203 0.43391183019 0.59081345797 -6.4602851868 -0.34201186895
          0.0051438789815 -14.314565659 -1.813522772e-06 13.760661125 -29.808736801 0.88405764103
          0 0 0 19.307109833 -34.89781189 -0.51388210058
          0.69596248865 -4.16447258 0.20876988769 28.061855316 -36.065120697 0.66798132658
          0.19482886791 -17.429393768 0.11371947825 1.2909975052 -20.953296661 0.18765231967
          0.48234307766 -1.1119738817 -0.041408739984 10.171141624 -29.558595657 0.37038818002
          0.42932632565 -8.7965812683 -0.15435253084 23.605573654 -35.439777374 0.59020996094
          19.308580399 -34.935562134 -4.1066082304e-06 6.930893898 -29.18478775 -0.60735756159
          0.25524765253 -11.19903183 0.27447324991 0.70940887928 -4.1882052422 -3.5040761759e-07
          0.69566994905 -2.4662909508 -0.14641070366 0.24428698421 -11.341526985 0.13879653811
          3.5323936939 -24.904844284 0.2446782738 6.9352974892 -29.286466599 -0.30361780524
          0.0051701501943 -14.272400856 0.00078222475713 15.198288918 -34.331207275 -0.87986385822
          32.646789551 -36.652572632 1.4943759441 0 0 0
          0.53325980902 -6.1292562485 0.46783956885 15.202056885 -34.441139221 -0.43949264288
          28.05632782 -35.948047638 1.3359425068 0.54913133383 -6.1848144531 0.23006042838