<?xml version="1.0"?>
<VTKFile type="UnstructuredGrid" version="0.1" byte_order="LittleEndian" header_type="UInt32" compressor="vtkZLibDataCompressor">
  <UnstructuredGrid>
    <Piece NumberOfPoints="6405" NumberOfCells="4800">
      <PointData>
        <DataArray type="Float32" Name="DISPLACEMENT" NumberOfComponents="3" ComponentName0="X-DISPLACEMENT" ComponentName1="Y-DISPLACEMENT" ComponentName2="Z-DISPLACEMENT" format="ascii" RangeMin="0" RangeMax="304.23526856">
          0 0 0 0 0 0
          2.3045651913 -1.4080927372 -1.0552639961 0 0 0
          1.435534358 -0.82609367371 -0.78272080421 0 0 0
          2.1111996174 -1.5673786402 -0.41647642851 1.2487185001 -0.95822900534 -0.31827616692
          0 0 0 4.1309051514 -2.6958050728 -1.0705258846
          0 0 0 4.0757312775 -2.8756079674 -0.55060315132
          2.8798906803 -2.2487652302 -0.87186270952 0 0 0
          0 0 0 2.1194550991 -1.6168317795 -4.3669757588e-08
          0.96808451414 -0.53997725248 -0.54904091358 1.2433439493 -0.98021781445 -2.6284222798e-08
          2.8178510666 -2.3914313316 -0.44379878044 0.82428997755 -0.65932756662 -0.22331489623
          4.0302510262 -2.9249668121 -1.6725920204e-07 1.9527848959 -1.9079289436 -0.66335391998
          0 0 0 2.7804820538 -2.436319828 -1.2532140659e-07
          1.8759484291 -2.0307359695 -0.34048107266 0 0 0
          5.7506370544 -4.3612318039 -0.99119490385 0 0 0
          0.81756991148 -0.67353200912 1.0931549888e-08 0 0 0
          0 0 0 2.111199379 -1.5673786402 0.4164763391
          4.2173843384 -3.9437096119 -0.8361004591 5.7706623077 -4.4861450195 -0.50548183918
          0.35966202617 -0.35474026203 -0.29606473446 1.2487183809 -0.95822900534 0.31827610731
          4.2326660156 -4.05990839 -0.4254964292 0.22549319267 -0.48224338889 -0.14235126972
          1.8445448875 -2.066614151 -5.8929199298e-08 4.0757308006 -2.8756079674 0.55060279369
          0 0 0 0 0 0
          0.93255698681 -1.703243494 -0.50988513231 2.9619166851 -3.6382908821 -0.69082915783
          5.7556557655 -4.5313158035 -3.5927871522e-07 2.8178508282 -2.3914315701 0.44379851222
          2.9516248703 -3.7424533367 -0.35235607624 0.82428985834 -0.65932762623 0.22331488132
          4.2230677605 -4.0988221169 -2.8835145827e-07 0.85097622871 -1.8012560606 -0.25745809078
          0.20987859368 -0.49470621347 6.0103189981e-08 0 0 0
          7.2245526314 -6.2154998779 -0.87677836418 0 0 0
          5.4832611084 -5.8309116364 -0.76650547981 1.8759481907 -2.0307359695 0.34048092365
          7.2677078247 -6.3026366234 -0.44448074698 2.3045649529 -1.4080927372 1.0552638769
          0 0 0 0 0 0
          0.82718843222 -1.8355287313 2.5857319841e-08 2.9409143925 -3.7784740925 -1.9725506206e-07
          0.20880752802 -0.5808788538 -0.34812799096 5.5218195915 -5.9176659584 -0.38698717952
          1.4355341196 -0.82609367371 0.78272068501 1.7816377878 -3.4047079086 -0.57529169321
          0 0 0 5.7706618309 -4.4861450195 0.50548112392
          0.15775880218 -0.63179779053 -0.14882209897 1.762868166 -3.5005738735 -0.28227812052
          4.2326655388 -4.05990839 0.42549583316 0.22549299896 -0.4822434485 0.14235135913
          3.9863696098 -5.5167403221 -0.6569493413 0.44479769468 -1.7401684523 -0.39647212625
          7.2684636116 -6.3335938454 -6.0705190208e-07 4.1309046745 -2.6958053112 1.070525527
          0 0 0 0 0 0
          4.0048141479 -5.6039366722 -0.33142906427 2.8798904419 -2.2487654686 0.8718624115
          5.5272798538 -5.948240757 -5.0528399242e-07 0.4438726306 -1.8337600231 -0.19220352173
          0.96808433533 -0.53997731209 0.54904085398 0.16737484932 -0.68712413311 2.6091481686e-07
          1.7467311621 -3.5292677879 -8.8880199201e-08 2.9516243935 -3.7424533367 0.35235565901
          0.85097581148 -1.8012561798 0.25745812058 4.0050153732 -5.6332678795 -3.9141116304e-07
          1.9527844191 -1.9079291821 0.66335368156 0.43507346511 -1.8703495264 1.8754003861e-07
          2.6724750996 -5.2710361481 -0.53313440084 7.2677073479 -6.3026371002 0.44447952509
          5.7506365776 -4.3612318039 0.99119412899 0 0 0
          8.5648546219 -8.1999559402 -0.78479254246 0 0 0
          0 0 0 0.80459046364 -3.2769732475 -0.35883793235
          2.6740789413 -5.3635063171 -0.26805245876 8.605840683 -8.2618055344 -0.39477267861
          6.6733398438 -7.8426852226 -0.70374035835 5.5218191147 -5.9176664352 0.38698616624
          -0.42584368587 -0.72838890553 -0.22232300043 0 0 0
          4.2173838615 -3.9437100887 0.83609980345 0.35966169834 -0.35474041104 0.29606470466
          0.80290228128 -3.393446207 -0.19492927194 0.15775837004 -0.63179790974 0.14882254601
          -0.44571051002 -0.76523029804 -0.18956117332 1.7628676891 -3.5005741119 0.2822779417
          6.7104701996 -7.9081025124 -0.35254788399 4.0048136711 -5.603937149 0.33142828941
          2.6700952053 -5.3889818192 -2.6370878459e-07 8.6127262115 -8.2840871811 -9.0262494723e-07
          -0.34468245506 -1.7173142433 -0.2841322124 0.44387209415 -1.8337601423 0.19220386446
          0 0 0 4.9957613945 -7.5469732285 -0.61743342876
          0.93255627155 -1.7032437325 0.50988507271 2.9619159698 -3.6382913589 0.69082868099
          0.79342287779 -3.41365242 2.4614335459e-08 6.7198791504 -7.9308342934 -7.6950868788e-07
          -0.26589527726 -0.81043994427 4.3719913378e-07 -0.34628978372 -1.8193619251 -0.15528786182
          5.0160121918 -7.6141290665 -0.30835136771 7.2245521545 -6.2155003548 0.87677705288
          0 0 0 1.2189787626 -5.1072006226 -0.35944056511
          5.4832601547 -5.8309121132 0.76650440693 0.021258143708 -2.1200628281 1.3550405811e-06
          1.2072876692 -5.2129244804 -0.19652946293 5.0210833549 -7.6352319717 -6.2375210064e-07
          0.20880688727 -0.58087909222 0.34812831879 2.6740784645 -5.363506794 0.26805192232
          3.4482913017 -7.3397450447 -0.51573616266 8.6058397293 -8.2618055344 0.39477086067
          0.20876410604 -3.5594944954 -0.43173113465 1.7816369534 -3.4047083855 0.57529145479
          0 0 0 0.80290162563 -3.393446207 0.19492934644
          3.4449563026 -7.4022274017 -0.26242864132 -0.44571253657 -0.76522994041 0.18956211209
          0.17267341912 -3.5835945606 -0.15317945182 6.7104697227 -7.9081029892 0.35254633427
          3.9863686562 -5.516740799 0.65694850683 0.44479680061 -1.7401689291 0.39647242427
          9.7947702408 -10.272950172 -0.72027134895 0 0 0
          1.2148314714 -5.2403202057 -1.0294968433e-07 7.7843031883 -9.944360733 -0.65758740902
          9.8260469437 -10.320767403 -0.36095902324 0 0 0
          0.087680868804 -0.99786901474 -0.14089968801 7.8130178452 -9.9951705933 -0.32772544026
          3.4473705292 -7.4223647118 -4.5861074227e-07 0.041049696505 -1.0565989017 -0.055214550346
          -0.34629186988 -1.8193610907 0.15529088676 0.24521124363 -3.6553087234 6.1969807064e-08
          5.0160117149 -7.6141290665 0.30835011601 5.9309420586 -9.6927175522 -0.59156495333
          0.024934217334 -2.1029884815 -0.26672789454 9.8336610794 -10.337892532 -1.2423643057e-06
          0 0 0 0.00067736319033 -2.1988639832 -0.10366862267
          5.9488902092 -9.7410230637 -0.29377174377 7.82168293 -10.012620926 -1.0782208619e-06
          0.023375237361 -1.0739169121 3.8726634557e-06 2.6724741459 -5.2710366249 0.5331338644
          1.7378001213 -7.1878409386 -0.45368909836 8.5648536682 -8.1999568939 0.78479069471
          0 0 0 0.57955819368 -5.4347100258 -0.51365637779
          1.2072871923 -5.2129249573 0.19652923942 0.80458933115 -3.2769734859 0.35883799195
          6.6733388901 -7.8426861763 0.70373880863 -0.42584437132 -0.72838902473 0.22232419252
          0.5495390296 -5.4266963005 -0.21121068299 1.7150638103 -7.2368850708 -0.22576588392
          3.4449555874 -7.4022278786 0.26242768764 0.17267535627 -3.583591938 0.1531842798
          5.9544606209 -9.7569103241 -9.0259118224e-07 -0.026848768815 -2.2755544186 9.1366691777e-06
          4.1842188835 -9.5558900833 -0.53459650278 -0.045567434281 -3.7942991257 -0.30976423621
          -0.34468367696 -1.7173172235 0.28413432837 9.82604599 -10.320767403 0.36095651984
          4.9957604408 -7.5469737053 0.61743217707 0 0 0
          1.7204210758 -7.2555837631 -2.6886371529e-07 0.59398841858 -5.4905018806 2.9612178309e-07
          4.1865596771 -9.5900802612 -0.26785299182 7.8130173683 -9.9951705933 0.32772326469
          -0.053103789687 -3.8330533504 -0.19087040424 0.04104462266 -1.0566000938 0.055219843984
          1.2189779282 -5.1072015762 0.35944035649 4.1898741722 -9.606754303 -7.1806971391e-07
          5.9488897324 -9.7410230637 0.29376992583 0.00065286207246 -2.1988666058 0.10368219763
          0.087163195014 -3.8400247097 2.2008132419e-06 10.945393562 -12.409781456 -0.68071144819
          0 0 0 10.966513634 -12.452260971 -0.34040898085
          3.4482903481 -7.3397455215 0.51573520899 8.8279857635 -12.098561287 -0.62422502041
          0.20875772834 -3.5594851971 0.43173781037 0.96080338955 -7.3997459412 -0.57432919741
          0.05757715553 -1.1473278999 -0.084638237953 0.54954659939 -5.4267039299 0.21121156216
          1.7150630951 -7.2368855476 0.22576530278 0 0 0
          8.8486423492 -12.143075943 -0.31059107184 0.97693300247 -7.3786153793 -0.26457974315
          0.020152369514 -1.1871702671 -0.034160770476 2.4872062206 -9.4755840302 -0.54103684425
          0.15758046508 -5.8308711052 -0.63748413324 9.7947692871 -10.272951126 0.72026884556
          0 0 0 7.7843017578 -9.9443616867 0.65758520365
          10.973165512 -12.467072487 -1.6282749584e-06 0.10717519373 -5.7645177841 -0.22036451101
          2.4895415306 -9.4925136566 -0.26095965505 0.08767414093 -0.99787139893 0.1409021467
          6.8029346466 -11.861632347 -0.56500995159 0.010483726859 -2.4567935467 -0.14190933108
          0 0 0 4.1865592003 -9.5900802612 0.26785153151
          -0.053175397217 -3.8330907822 0.19088248909 8.8552818298 -12.157809258 -1.428711812e-06
          1.0061910152 -7.404531002 1.9023789832e-07 6.8207187653 -11.901595116 -0.28025388718
          -0.020612113178 -2.5207135677 -0.07147321105 0.016515409574 -1.2036211491 3.9303117774e-06
          5.9309411049 -9.6927175522 0.59156310558 0.024908341467 -2.1029901505 0.26672443748
          2.4971029758 -9.5100803375 -5.317571663e-07 0.30653616786 -5.6404385567 -2.1170940272e-06
          1.73779881 -7.1878414154 0.4536884129 6.8252286911 -11.913650513 -1.2220144754e-06
          -0.017865799367 -2.5337080956 5.4866281971e-06 0.5795711875 -5.4347248077 0.51365816593
          10.96651268 -12.452260971 0.34040570259 4.8791251183 -11.73768425 -0.51525312662
          0 0 0 -0.06850155443 -4.0452256203 -0.18971773982
          4.893933773 -11.762522697 -0.25759533048 8.8486413956 -12.143075943 0.31058818102
          0.020146861672 -1.1871730089 0.034167088568 0.97693312168 -7.3786158562 0.26458001137
          -0.092363335192 -4.1190271378 -0.093808799982 4.184217453 -9.555891037 0.53459501266
          1.3967018127 -9.5490961075 -0.54173249006 2.4895408154 -9.4925146103 0.26095858216
          -0.045647952706 -3.7943708897 0.3098116219 0.10716060549 -5.7645106316 0.22037108243
          0.55862849951 -8.0247402191 -0.64234399796 1.4473252296 -9.5690584183 -0.27395310998
          4.8951463699 -11.772679329 -1.0182932328e-06 6.8207182884 -11.901595116 0.28025141358
          -0.020625667647 -2.5207259655 0.071482688189 0.55281215906 -7.9650230408 -0.30690157413
          -0.10513110459 -4.1156859398 6.3574311753e-06 12.053683281 -14.605679512 -0.66144520044
          0 0 0 0.0081213461235 -1.2615838051 -0.041754398495
          1.492551446 -9.5977058411 -3.1741089401e-07 3.1509258747 -11.711546898 -0.50795215368
          9.8334608078 -14.297759056 -0.60165530443 10.945391655 -12.40978241 0.68070811033
          0 0 0 0 0 0
          0.54049611092 -7.9256157875 -1.0520978577e-07 -0.12947617471 -5.8938522339 -0.16850659251
          12.066082954 -14.649388313 -0.33015239239 3.1721894741 -11.720837593 -0.25423741341
          9.8466100693 -14.342978477 -0.29937055707 8.8279848099 -12.098562241 0.62422215939
          -0.0078014140017 -1.2920385599 -0.015880323946 0.96080321074 -7.3997468948 0.57432889938
          0.05757105723 -1.147331357 0.084640450776 -0.19429188967 -5.9883642197 -0.15622113645
          4.8939328194 -11.762523651 0.25759327412 -0.092367492616 -4.1190438271 0.093821376562
          7.6537938118 -14.047703743 -0.53752994537 2.4872047901 -9.4755849838 0.54103577137
          0.15756265819 -5.8308644295 0.63748157024 0 0 0
          -0.055591557175 -2.6734373569 -0.062271162868 12.071303368 -14.663977623 -2.0630232029e-06
          -0.0089324256405 -1.3009533882 2.2719705157e-06 3.1780459881 -11.733560562 -8.3596182776e-07
          7.6698045731 -14.08883667 -0.26624691486 6.8029332161 -11.861633301 0.5650074482
          9.8512420654 -14.357217789 -1.8181832502e-06 0.010464900173 -2.4568097591 0.14191785455
          -0.22240372002 -5.9674868584 -1.4835511308e-07 -0.068493120372 -2.7213847637 -0.028474001214
          1.4473247528 -9.5690593719 0.27395245433 0.55280822515 -7.9650192261 0.30690181255
          0.7160949111 -9.9644899368 -0.64256203175 7.6743969917 -14.099754333 -1.5681556533e-06
          -0.075065776706 -2.7357420921 3.1862252854e-06 0.74840319157 -9.9387807846 -0.30302163959
          5.5341320038 -13.895433426 -0.4760209024 0 0 0
          -0.17552472651 -4.2873616219 -0.056122284383 12.066082001 -14.649388313 0.33014824986
          -0.0078038387001 -1.2920418978 0.015884131193 3.1721887589 -11.720837593 0.25423574448
          5.5483469963 -13.919876099 -0.23882094026 4.8791236877 -11.737685204 0.51525104046
          9.8466091156 -14.342979431 0.29936692119 1.8899518251 -11.798151016 -0.54386305809
          -0.299066782 -8.3197154999 -0.57628363371 -0.068510182202 -4.0452442169 0.18971678615
          -0.19027970731 -4.3566498756 -0.029755029827 -0.19429731369 -5.9883608818 0.15622144938
          1.9350483418 -11.800356865 -0.26596310735 -0.3159891367 -8.342092514 -0.29410913587
          0.76472133398 -9.9521799088 -1.5567847811e-07 1.3967008591 -9.5490970612 0.54173189402
          7.6698036194 -14.08883667 0.26624375582 0.55862295628 -8.0247364044 0.64234489202
          5.5470409393 -13.926118851 -1.3384830027e-06 -0.06849526614 -2.7213904858 0.028479456902
          -0.19978351891 -4.3748292923 1.8654760652e-06 1.9716472626 -11.819673538 -6.5219069256e-07
          -0.39076125622 -8.2801561356 -3.2310668985e-07 -0.34612342715 -6.1802682877 -0.068789206445
          3.6459593773 -13.87929821 -0.4617190063 12.053682327 -14.605680466 0.66144102812
          0 0 0 0.74840271473 -9.9387817383 0.30302137136
          0.0081183742732 -1.2615878582 0.041756629944 -0.37408834696 -6.2634730339 -0.020516274497
          3.1509244442 -11.711547852 0.50795048475 9.8334589005 -14.29776001 0.60165160894
          3.6663558483 -13.881809235 -0.23438346386 13.149892807 -16.878158569 -0.65628480911
          0 0 0 -0.12948438525 -5.8938465118 0.16851522028
          13.155535698 -16.926065445 -0.32711565495 -0.021495297551 -1.3400309086 -0.0056720641442
          10.823505402 -16.567832947 -0.59007036686 5.5483460426 -13.919876099 0.23881825805
          0 0 0 -0.19028073549 -4.3566541672 0.02975730598
          10.830111504 -16.61662674 -0.29367846251 -0.023954188451 -1.3627672195 -0.0016322121955
          1.9350478649 -11.800357819 0.26596182585 -0.31599074602 -8.342089653 0.29410937428
          7.6537923813 -14.047704697 0.53752678633 -0.40215232968 -6.2940917015 -1.4812849258e-06
          3.669005394 -13.890349388 -1.1452901845e-06 -0.0555947721 -2.6734437943 0.062273569405
          1.0616725683 -12.081558228 -0.59116065502 -0.085591338575 -2.8140659332 -0.0050440193154
          8.5061378479 -16.303207397 -0.51952409744 0.1463342607 -10.391039848 -0.56206637621
          13.159018517 -16.941610336 -2.5523886507e-06 0 0 0
          1.10410285 -12.074745178 -0.28811565042 10.833060265 -16.631689072 -2.2469948817e-06
          -0.024590838701 -1.3696670532 8.638349982e-07 8.5162553787 -16.349128723 -0.25743070245
          -0.085135340691 -2.8494861126 -0.0007781124441 0.0083073135465 -10.321556091 -0.29805022478
          0.71609383821 -9.9644908905 0.64256179333 1.1238856316 -12.084651947 -4.9004813718e-07
          -0.466458112 -8.2229690552 0.03065626137 -0.37408638 -6.2634739876 0.020514070988
          2.4205577374 -14.029082298 -0.53352588415 8.5198936462 -16.361789703 -1.9355200038e-06
          5.5341305733 -13.89543438 0.47601819038 3.6663548946 -13.881809235 0.23438116908
          -0.07586081326 -10.263611794 -1.3479402128e-07 -0.086595185101 -2.8618066311 4.808134122e-07
          -0.17552694678 -4.2873659134 0.056124262512 13.155535698 -16.926065445 0.32711052895
          6.191930294 -16.107620239 -0.45145112276 -0.59659272432 -8.378241539 -0.063653029501
          -0.18948416412 -4.4782176018 0.0086716553196 2.4596922398 -14.020630836 -0.25613772869
          1.8899507523 -11.798152924 0.543861866 -0.2990694344 -8.3197135925 0.57628488541
          0 0 0 -0.1858586669 -4.5230474472 0.0098132099956
          10.83011055 -16.61662674 0.29367396235 -0.023954605684 -1.3627688885 0.0016335716937
          6.2050261497 -16.139854431 -0.22606945038 -0.61785912514 -8.3783941269 -3.3461237763e-06
          2.4855761528 -14.031756401 -9.775833405e-07 1.1041024923 -12.074746132 0.28811469674
          6.207971096 -16.148508072 -1.6537660485e-06 -0.19163383543 -4.5419063568 -1.3639501049e-06
          8.516254425 -16.34913063 0.25742679834 -0.085135444999 -2.8494882584 0.00077871209942
          0.0083061214536 -10.321555138 0.29804992676 -0.34612229466 -6.1802668571 0.0687873438
          3.6459579468 -13.879299164 0.46171671152 4.0874156952 -16.035411835 -0.42726311088
          13.1498909 -16.878160477 0.65627962351 0 0 0
          -0.30965232849 -6.3398404121 0.047402136028 -0.021495984867 -1.3400325775 0.0056724222377
          10.823503494 -16.567832947 0.59006583691 -0.59659034014 -8.3782424927 0.063647434115
          2.4596917629 -14.02063179 0.25613579154 4.1075315475 -16.040107727 -0.21652795374
          0.38264727592 -12.517687798 -0.58073449135 -0.32194340229 -6.4056806564 0.025538662449
          -0.18585714698 -4.5230484009 -0.0098157050088 6.2050251961 -16.139856339 0.22606611252
          0.35169929266 -12.467409134 -0.28933590651 1.4653939009 -14.208991051 -0.54547810555
          -0.9245147109 -10.686243057 -0.60125237703 14.24833107 -19.251384735 -0.6581363678
          0 0 0 11.80932045 -18.938547134 -0.58686041832
          1.0616718531 -12.081560135 0.59115982056 -0.085592232645 -2.8140676022 0.005043970421
          8.5061359406 -16.303207397 0.51952016354 -0.96438694 -10.641374588 -0.2661228776
          1.4950703382 -14.205728531 -0.2684995532 0.14633144438 -10.391037941 0.56206673384
          14.249677658 -19.303201675 -0.32796546817 0 0 0
          -0.33186855912 -6.429997921 -4.0994004848e-06 4.1121649742 -16.04788208 -1.426271524e-06
          -0.030399950221 -1.3703038692 0.020725792274 11.811221123 -18.990625381 -0.29236039519
          -0.023490849882 -1.388273716 0.0085856821388 0.30911675096 -12.423082352 -3.8054307083e-07
          9.3631448746 -18.664428711 -0.51327568293 -1.2254091501 -10.690061569 -7.2146013963e-07
          1.5095801353 -14.20994854 -7.985769912e-07 14.251433372 -19.319877625 -3.107335715e-06
          0 0 0 -0.062481492758 -2.8686206341 0.030810842291
          9.3674144745 -18.71439743 -0.25474089384 11.812643051 -19.006937027 -2.7217120078e-06
          -0.46645539999 -8.2229671478 -0.030660821125 2.4205567837 -14.029083252 0.53352403641
          -0.022747691721 -1.3940834999 -2.1286145113e-07 -0.054094210267 -2.89392066 0.015989940614
          6.1919288635 -16.107620239 0.4514477551 -0.18948355317 -4.4782180786 -0.0086743263528
          -0.46005806327 -8.4112529755 0.016470680013 2.9101538658 -16.1811409 -0.50787001848
          -0.32193940878 -6.4056806564 -0.02554657124 4.1075305939 -16.040107727 0.21652510762
          -0.4859315455 -8.4917030334 0.017627678812 2.9376831055 -16.164815903 -0.24265955389
          0.35169929266 -12.467409134 0.28933519125 9.3696146011 -18.728981018 -2.3244645035e-06
          -0.051785830408 -2.9045455456 -1.1938826674e-06 6.9037685394 -18.435894012 -0.44173422456
          -0.9643868804 -10.641373634 0.26612246037 1.4950700998 -14.205729485 0.26849800348
          14.249676704 -19.303201675 0.32795923948 0 0 0
          -0.10126388818 -4.5406961441 0.046628985554 6.9133505821 -18.477655411 -0.21910217404
          11.811220169 -18.990625381 0.29235491157 -0.091519229114 -4.5712108612 0.025149293244
          -0.5131201148 -8.5430822372 -7.8327366282e-06 2.9528152943 -16.166757584 -1.2629975572e-06
          -0.023490851745 -1.3882744312 -0.0085861990228 9.3674125671 -18.714399338 0.25473624468
          6.9178109169 -18.489442825 -1.948937097e-06 -0.090129084885 -4.5855193138 -3.0449989481e-06
          4.0874142647 -16.035411835 0.42726022005 0.65253579617 -14.476851463 -0.55053508282
          -0.054093651474 -2.8939213753 -0.015992326662 -0.30964806676 -6.3398385048 -0.047408118844
          -0.65665441751 -12.816884995 -0.57883107662 0.65116727352 -14.469612122 -0.27030423284
          0.3826469779 -12.517688751 0.5807338357 -0.57491862774 -12.724866867 -0.41188430786
          -0.48592096567 -8.4917011261 -0.017640773207 2.9376826286 -16.164815903 0.24265705049
          1.4653933048 -14.208992004 0.54547667503 -0.92451512814 -10.686243057 0.60125273466
          -0.14526508749 -6.4039096832 0.069222591817 4.5904593468 -18.286081314 -0.39835301042
          14.248329163 -19.251384735 0.65813010931 0 0 0
          11.809318542 -18.938549042 0.58685487509 -0.13553148508 -6.4381623268 0.038677766919
          0.64332640171 -14.467141151 -6.548960414e-07 -0.54317092896 -10.49552536 0.025312794372
          1.9339250326 -16.342803955 -0.52405649424 4.608423233 -18.301780701 -0.19885694981
          -0.030400527641 -1.3703042269 -0.020726611838 -1.200066328 -12.168356895 4.4546874278e-07
          6.9133496284 -18.477657318 0.21909824014 -0.091517373919 -4.5712108612 -0.025155186653
          1.9409992695 -16.326013565 -0.2539678812 -0.58049881458 -10.6114254 -0.098542168736
          9.3631429672 -18.664430618 0.51327091455 -0.13774198294 -6.4598932266 -5.6849671637e-06
          4.6135334969 -18.310806274 -1.6381175101e-06 -0.062481835485 -2.8686208725 -0.030813245103
          1.9402666092 -16.317270279 -1.069524501e-06 15.351420403 -21.741701126 -0.66146552563
          0 0 0 -0.49469938874 -10.668867111 -1.5285904738e-05
          15.350727081 -21.795600891 -0.32987836003 0 0 0
          0.65116733313 -14.469613075 0.27030295134 12.795331001 -21.427442551 -0.5879907608
          -0.46004399657 -8.4112501144 -0.016479821876 2.9101529121 -16.1811409 0.50786757469
          -0.029479620978 -1.3406970501 0.042744021863 -0.5749181509 -12.724867821 0.41188371181
          12.794645309 -21.481172562 -0.29342621565 -0.015058929101 -1.3586163521 0.016721880063
          6.9037666321 -18.43589592 0.44173020124 15.351167679 -21.813030243 -3.7434970181e-06
          -0.13552671671 -6.4381613731 -0.038688343018 10.230032921 -21.146232605 -0.51407331228
          -0.011992485262 -2.8133010864 0.057593245059 4.6084222794 -18.301780701 0.19885362685
          0 0 0 3.414986372 -18.342514038 -0.48661866784
          -0.18634431064 -8.3896799088 0.094793088734 -0.10126279294 -4.5406956673 -0.046634085476
          0.00018051735242 -2.8383233547 0.026668617502 10.230347633 -21.199064255 -0.2556219995
          12.794920921 -21.49836731 -3.2548446143e-06 1.9409992695 -16.326013565 0.25396576524
          -0.17709381878 -8.4539937973 0.045267958194 3.4309182167 -18.318906784 -0.23138514161
          -0.58046323061 -10.611423492 0.098518140614 -0.013293651864 -1.3648035526 -7.5836391034e-07
          -0.40466418862 -14.507836342 -0.54397577047 10.231433868 -21.21521759 -2.7454277642e-06
          0.65253567696 -14.476853371 0.55053389072 0.0061871539801 -2.8491652012 -1.9388328383e-06
          -0.16850708425 -8.4799203873 -9.0801095212e-06 -0.22482812405 -14.654177666 -0.27682730556
          3.4381844997 -18.314992905 -1.4827617179e-06 -0.65665465593 -12.816885948 0.57883048058
          15.350726128 -21.795600891 0.32987084985 7.6475510597 -20.898271561 -0.43846651912
          -1.0136537552 -12.954187393 -0.32085487247 0 0 0
          0.032580349594 -4.4717988968 0.065659664571 1.0569032431 -16.5365448 -0.53189909458
          0.047818176448 -4.4984340668 0.028798179701 7.6499619484 -20.947656631 -0.21741560102
          12.794644356 -21.481172562 0.29341968894 -0.81535154581 -12.913188934 -0.29474392533
          1.0376321077 -16.520191193 -0.25484657288 -0.015058795922 -1.3586164713 -0.01672334224
          -0.14525993168 -6.4039077759 -0.069231204689 4.5904574394 -18.286083221 0.39834955335
          -0.045429762453 -14.825464249 -5.4449623121e-07 -0.54312652349 -10.495516777 -0.025315707549
          1.933924675 -16.342805862 0.52405440807 7.6512212753 -20.961633682 -2.2511117095e-06
          10.23034668 -21.199064255 0.25561648607 -0.32652413845 -12.431477547 -1.6915375454e-05
          0.00018110770907 -2.8383235931 -0.026672400534 0.056665088981 -4.5151968002 -3.5658219986e-06
          -0.1770825386 -8.4539899826 -0.045284289867 3.4309177399 -18.318908691 0.23138217628
          1.0137928724 -16.508241653 -8.9487775767e-07 2.425570488 -18.447164536 -0.51507258415
          -0.25081840158 -10.491596222 0.068609856069 2.4101579189 -18.419101715 -0.24569715559
          -0.23166434467 -10.558191299 0.027893269435 15.351418495 -21.741703033 0.66145795584
          0 0 0 -0.22482809424 -14.654178619 0.27682626247
          0.089775077999 -6.3011841774 0.07712700963 5.1708745956 -20.700723648 -0.37016695738
          0.11415349692 -6.3350644112 0.041856065392 12.795329094 -21.427444458 0.58798420429
          -0.029480231926 -1.3406971693 -0.04274552688 5.1779193878 -20.73125267 -0.18587590754
          7.6499605179 -20.947658539 0.21741105616 -0.81525236368 -12.913147926 0.29470574856
          0.047819841653 -4.4984335899 -0.02880500257 1.0376322269 -16.5201931 0.25484481454
          2.3923521042 -18.397827148 -1.2763841823e-06 -0.18032823503 -10.554901123 -1.1802344488e-05
          10.230031013 -21.146234512 0.51406770945 -0.011992820539 -2.8133010864 -0.057596709579
          3.4149854183 -18.342514038 0.48661571741 0.11949198693 -6.3547434807 -5.3798526096e-06
          -0.18632982671 -8.3896741867 -0.094804473221 5.1762809753 -20.742380142 -1.8045543584e-06
          16.456485748 -24.35455513 -0.66373276711 0 0 0
          -0.40466427803 -14.507838249 0.54397475719 2.4101576805 -18.419103622 0.2456946373
          0 0 0 13.78291893 -24.040372849 -0.59066694975
          -0.92746555805 -14.136422157 -0.20566852391 -0.2316416353 -10.558177948 -0.027914423496
          -0.037385504693 -1.2475261688 0.068333730102 0.29744324088 -16.830947876 -0.51173067093
          16.45526123 -24.408748627 -0.33143523335 7.6475486755 -20.898273468 0.43846184015
          13.781423569 -24.094158173 -0.29515594244 -0.014805689454 -1.2717673779 0.025246042758
          -1.0135149956 -12.954151154 0.3208065927 -0.71306163073 -14.44625473 -0.16302789748
          0.032581392676 -4.4717988968 -0.065665632486 4.0198903084 -20.600944519 -0.47386533022
          0.11415705085 -6.3350629807 -0.041866257787 1.0569033623 -16.5365448 0.53189736605
          0.18290297687 -8.2944259644 0.1523642689 5.1779179573 -20.731254578 0.18587221205
          0.27562528849 -16.828374863 -0.23728734255 0.20524644852 -8.3206691742 0.073238998652
          4.022901535 -20.568559647 -0.22440209985 11.104624748 -23.758296967 -0.51846259832
          16.455032349 -24.426481247 -4.4777671064e-06 0.018786711618 -2.6417033672 0.090981945395
          0 0 0 11.102172852 -23.811595917 -0.25832971931
          0.037000659853 -2.6784455776 0.039634697139 13.781222343 -24.111721039 -3.8625353227e-06
          1.5399211645 -18.60858345 -0.51369541883 -0.22703930736 -14.777215004 3.4085160223e-06
          0.24464307725 -16.819404602 -7.6715576824e-07 -0.18413493037 -12.532333374 0.084816381335
          -0.011132984422 -1.2808035612 -9.0281127996e-07 1.487298727 -18.575454712 -0.24025209248
          4.0228433609 -20.559907913 -1.6175986275e-06 -0.19267085195 -12.641998291 -0.01303844247
          0.20083542168 -8.3370084763 -6.7237533585e-06 2.4255702496 -18.447164536 0.51507014036
          11.101966858 -23.828477859 -3.2182542782e-06 -0.25078806281 -10.491578102 -0.068626739085
          0.047902356833 -2.6947169304 -1.9984961455e-06 8.4093742371 -23.503700256 -0.44315308332
          16.45526123 -24.408750534 0.33142626286 1.4313695431 -18.537807465 -1.0768486618e-06
          0.14848230779 -4.2433018684 0.080454222858 0.089779004455 -6.3011822701 -0.077135495842
          -0.22392775118 -12.612897873 -1.1181490663e-05 5.1708726883 -20.700725555 0.37016305327
          0 0 0 8.4072847366 -23.555932999 -0.22023484111
          0.16760417819 -4.2889208794 0.031576704234 13.781422615 -24.09416008 0.29514819384
          -0.7129420042 -14.446287155 0.16301631927 0.27562561631 -16.82837677 0.23728582263
          -0.014805540442 -1.2717674971 -0.025247754529 4.0229010582 -20.568559647 0.22439883649
          0.20525257289 -8.3206653595 -0.073251642287 11.102170944 -23.811597824 0.2583232224
          8.4081401825 -23.571119308 -2.5760764402e-06 3.0019612312 -20.585645676 -0.5204577446
          0.19389627874 -10.323579788 0.16152636707 0.18425031006 -4.3121881485 -3.2041859868e-06
          0.037001177669 -2.6784455776 -0.039638575166 0.24743813276 -10.4226017 0.13128723204
          1.4872990847 -18.575454712 0.24024996161 2.9623456001 -20.550294876 -0.24280495942
          -0.1926523 -12.641978264 0.013019871898 5.7803621292 -23.25879097 -0.36050367355