<?xml version="1.0"?>
<VTKFile type="UnstructuredGrid" version="0.1" byte_order="LittleEndian" header_type="UInt32" compressor="vtkZLibDataCompressor">
  <UnstructuredGrid>
    <Piece NumberOfPoints="6405" NumberOfCells="4800">
      <PointData>
        <DataArray type="Float32" Name="DISPLACEMENT" NumberOfComponents="3" ComponentName0="X-DISPLACEMENT" ComponentName1="Y-DISPLACEMENT" ComponentName2="Z-DISPLACEMENT" format="ascii" RangeMin="0" RangeMax="332.35097343">
          0 0 0 0 0 0
          2.5900681019 -1.5232019424 -1.1902234554 0 0 0
          1.53576684 -0.86574244499 -0.83132791519 0 0 0
          2.3798584938 -1.7341067791 -0.46921983361 1.3358536959 -1.0477983952 -0.33821547031
          0 0 0 4.6877040863 -3.0836906433 -1.2094002962
          0 0 0 4.6283602715 -3.325293541 -0.61746305227
          3.0958354473 -2.5726392269 -0.92143142223 0 0 0
          0 0 0 2.3929378986 -1.7965865135 5.0508763394e-08
          0.92521959543 -0.55809575319 -0.5153310895 1.3283668756 -1.0803403854 1.408761463e-08
          3.0282816887 -2.773080349 -0.46856060624 0.80157482624 -0.73904418945 -0.21059332788
          4.5778713226 -3.3909547329 7.4091204283e-08 1.8361411095 -2.1960906982 -0.6090837121
          0 0 0 2.9875276089 -2.8324975967 1.0985681698e-08
          1.7508111 -2.380964756 -0.31281960011 0 0 0
          6.541864872 -5.2302918434 -1.1095887423 0 0 0
          0.80399161577 -0.76653599739 -1.8607881458e-08 0 0 0
          0 0 0 2.3798584938 -1.7341066599 0.46921992302
          4.5327687263 -4.7689986229 -0.887604177 6.5636773109 -5.4009423256 -0.56285047531
          0.1019833535 -0.43603658676 -0.15101596713 1.3358535767 -1.0477982759 0.33821550012
          4.5441355705 -4.9280896187 -0.45050242543 0.0042488691397 -0.6435803175 -0.088347949088
          1.7189012766 -2.4305202961 -4.629681527e-08 4.6283602715 -3.325293541 0.61746323109
          0 0 0 0 0 0
          0.34745207429 -2.0068666935 -0.32844120264 2.8258159161 -4.4532499313 -0.67624288797
          6.5436668396 -5.4592633247 8.0224459964e-08 3.0282816887 -2.773080349 0.46856063604
          2.7871751785 -4.5927476883 -0.34364646673 0.80157476664 -0.73904412985 0.21059328318
          4.5322599411 -4.9782061577 -7.2097967596e-09 0.25311002135 -2.1838014126 -0.1772710979
          -0.0025388679933 -0.68293780088 -5.5405944721e-08 0 0 0
          8.1850795746 -7.688993454 -0.96445566416 0 0 0
          5.8810024261 -7.2813620567 -0.82303750515 1.7508111 -2.3809645176 0.3128195107
          8.2324819565 -7.7999515533 -0.48832368851 2.5900681019 -1.5232018232 1.1902235746
          0 0 0 0 0 0
          0.23558184505 -2.2356994152 -1.0334287026e-07 2.7729790211 -4.6374368668 -8.8705114365e-08
          -0.57650715113 -0.69158124924 -0.10966379195 5.9182047844 -7.3883152008 -0.41420510411
          1.53576684 -0.86574226618 0.83132791519 0.96223807335 -4.2457036972 -0.51790475845
          0 0 0 6.5636773109 -5.4009423256 0.56285059452
          -0.72942137718 -0.78607171774 -0.041920229793 0.90002793074 -4.3609480858 -0.25581848621
          4.5441355705 -4.9280896187 0.45050239563 0.0042488886975 -0.64358025789 0.088347837329
          3.8428237438 -6.9891834259 -0.6906132102 -0.51668131351 -2.2525069714 -0.38165593147
          8.2293252945 -7.8383274078 6.7495030009e-08 4.6877036095 -3.0836904049 1.2094004154
          0 0 0 0 0 0
          3.8405053616 -7.0822429657 -0.34869277477 3.0958352089 -2.5726389885 0.92143142223
          5.9223842621 -7.4245586395 -3.9073807301e-08 -0.58675688505 -2.3165402412 -0.14636708796
          0.92521953583 -0.55809563398 0.51533102989 -0.74175107479 -0.85642015934 -1.0143571672e-07
          0.88709980249 -4.4008984566 -1.7417482923e-07 2.7871749401 -4.5927476883 0.34364625812
          0.25310999155 -2.1838014126 0.17727087438 3.8376684189 -7.1156635284 -1.421206548e-07
          1.8361409903 -2.1960904598 0.60908353329 -0.5868691802 -2.3851189613 -1.7913012584e-07
          1.8349227905 -6.7766032219 -0.5996735692 8.2324810028 -7.7999515533 0.48832380772
          6.541864872 -5.2302913666 1.1095888615 0 0 0
          9.6378278732 -10.314173698 -0.84692442417 0 0 0
          0 0 0 -0.19667905569 -4.3383493423 -0.44583639503
          1.8096165657 -6.8520216942 -0.29463803768 9.684630394 -10.383150101 -0.42626735568
          7.1429438591 -9.9394645691 -0.75776082277 5.9182047844 -7.388314724 0.41420501471
          -1.5654888153 -1.0110013485 -0.25646546483 0 0 0
          4.5327682495 -4.7689981461 0.887604177 0.10198332369 -0.43603649735 0.15101584792
          -0.22254264355 -4.4159998894 -0.21209527552 -0.72942143679 -0.78607165813 0.041920024902
          -1.7146961689 -0.80516529083 -0.10089190304 0.90002781153 -4.3609476089 0.25581812859
          7.1833720207 -10.009188652 -0.37920096517 3.8405051231 -7.0822424889 0.34869247675
          1.7991784811 -6.8797979355 -2.54202007e-07 9.6898174286 -10.407792091 3.8746669873e-08
          -1.5364419222 -2.289866209 -0.37661030889 -0.58675694466 -2.3165402412 0.14636670053
          0 0 0 4.8732557297 -9.6489467621 -0.67164564133
          0.34745198488 -2.0068664551 0.32844093442 2.8258156776 -4.4532494545 0.67624270916
          -0.22853320837 -4.4528608322 -2.9049692785e-07 7.1927137375 -10.033130646 -8.09054157e-08
          -0.18382622302 -1.3994573355 -4.2349370233e-07 -1.3871355057 -2.6230223179 -0.24904212356
          4.8889055252 -9.7110509872 -0.33630782366 8.1850795746 -7.6889929771 0.96445578337
          0 0 0 0.20862793922 -6.6762304306 -0.47086283565
          5.8810019493 -7.2813615799 0.82303744555 -1.3599621058 -2.6926064491 -2.0727925687e-07
          0.19133424759 -6.7523560524 -0.24707809091 4.8918781281 -9.7327404022 -1.9937967011e-07
          -0.57650732994 -0.69158107042 0.10966353118 1.8096163273 -6.8520216942 0.29463750124
          2.7286808491 -9.4444961548 -0.60101109743 9.684630394 -10.383150101 0.42626744509
          -0.84359884262 -4.8276906013 -0.67233109474 0.96223783493 -4.2457032204 0.51790434122
          0 0 0 -0.22254277766 -4.4159994125 0.21209469438
          2.7236747742 -9.4938678741 -0.30073365569 -1.7146955729 -0.80516570807 0.1008907035
          -0.97356748581 -4.6645898819 -0.24944655597 7.1833720207 -10.009188652 0.37920081615
          3.8428235054 -6.9891829491 0.69061291218 -0.51668155193 -2.2525064945 0.38165548444
          10.949324608 -13.022721291 -0.7637411952 0 0 0
          0.19799727201 -6.7758975029 -3.8175272721e-07 8.3291559219 -12.671563148 -0.70298349857
          10.987182617 -13.068510056 -0.38266786933 0 0 0
          -0.17603830993 -1.5137873888 -0.025375016034 8.3634958267 -12.719216347 -0.35040271282
          2.7188434601 -9.5112829208 -3.2616927115e-07 -0.17213959992 -1.5931504965 -0.017691968009
          -1.3871349096 -2.62302351 0.24904157221 -1.062975049 -4.5759296417 -1.1354197937e-07
          4.8889055252 -9.7110509872 0.33630740643 5.8855257034 -12.387378693 -0.63996303082
          -0.61056566238 -2.9481525421 -0.22225177288 10.994787216 -13.084655762 -1.1212023532e-09
          0 0 0 -0.69795286655 -3.0992834568 -0.048346098512
          5.9054341316 -12.429234505 -0.31869384646 8.3731269836 -12.735028267 -1.2828726881e-07
          -0.37280410528 -1.648835063 -1.5458604707e-07 1.8349225521 -6.7766027451 0.59967303276
          0.78798943758 -9.3590269089 -0.54771876335 9.6378278732 -10.314172745 0.84692448378
          0 0 0 -0.4137980938 -7.3888764381 -0.70125770569
          0.19133414328 -6.7523560524 0.24707733095 -0.19667933881 -4.3383488655 0.44583579898
          7.1429433823 -9.9394645691 0.75776064396 -1.5654872656 -1.0110011101 0.25646466017
          -0.41133534908 -7.3639054298 -0.30190268159 0.77725207806 -9.3926143646 -0.27703252435
          2.7236747742 -9.4938678741 0.30073300004 -0.97356796265 -4.6645889282 0.24944740534
          5.9106001854 -12.442327499 -2.5564673933e-07 -0.59996014833 -3.2877645493 -1.29976371e-07
          3.558504343 -12.202762604 -0.58890420198 -0.96726292372 -5.1201720238 -0.28263923526
          -1.5364390612 -2.2898688316 0.37661135197 10.987182617 -13.068509102 0.38266786933
          4.8732557297 -9.6489458084 0.67164522409 0 0 0
          0.78969490528 -9.4101781845 -4.5963682282e-07 -0.35234245658 -7.4346017838 -5.292286005e-07
          3.5629944801 -12.227844238 -0.29608714581 8.3634958267 -12.719216347 0.3504024744
          -1.0536481142 -5.2169437408 -0.20281086862 -0.17213957012 -1.5931504965 0.01769166626
          0.2086276859 -6.6762299538 0.47086206079 3.5628769398 -12.238265991 -3.9046082634e-07
          5.9054341316 -12.429234505 0.31869331002 -0.69795262814 -3.0992839336 0.048345971853
          -1.0391052961 -5.1653575897 -3.8406815861e-07 12.163458824 -15.787596703 -0.70893204212
          0 0 0 12.191184998 -15.821990967 -0.35405260324
          2.7286806107 -9.4444952011 0.60101038218 9.4502134323 -15.454586983 -0.66167622805
          -0.84359866381 -4.8276901245 0.67233157158 -0.19834753871 -9.757068634 -0.72433227301
          -0.10923244804 -1.7974278927 0.0023775929585 -0.41133439541 -7.3639063835 0.30190166831
          0.77725195885 -9.3926143646 0.27703160048 0 0 0
          9.4760961533 -15.490483284 -0.32906723022 -0.19190110266 -9.7061862946 -0.33602446318
          -0.1532330811 -1.8388584852 0.011565186083 1.4449322224 -12.161845207 -0.5990446806
          -1.374045372 -7.8351340294 -0.75244468451 10.949324608 -13.022721291 0.7637411952
          0 0 0 8.3291549683 -12.671563148 0.70298326015
          12.198391914 -15.833644867 -4.8090516458e-08 -1.3742780685 -7.7899699211 -0.39078623056
          1.4482854605 -12.162075043 -0.29786500335 -0.17603844404 -1.513787508 0.025374701247
          6.8619074821 -15.179224014 -0.61055451632 -0.38501214981 -3.6410155296 -0.064703404903
          0 0 0 3.5629942417 -12.227844238 0.29608634114
          -1.0536476374 -5.2169437408 0.20281013846 9.4841413498 -15.501549721 -1.7830235777e-07
          -0.15847679973 -9.7316570282 -5.9924104789e-07 6.8801388741 -15.208868027 -0.30329918861
          -0.43697273731 -3.7215292454 -0.01465663407 -0.13703650236 -1.8646491766 -1.1901060759e-07
          5.8855257034 -12.387377739 0.63996255398 -0.61056560278 -2.9481532574 0.22225107253
          1.4600561857 -12.177004814 -5.3365278063e-07 -1.3687382936 -7.7856097221 -5.4769571989e-07
          0.78798907995 -9.3590259552 0.54771780968 6.8856368065 -15.216921806 -3.0911022009e-07
          -0.4757694304 -3.7445132732 -2.6849994583e-07 -0.41379657388 -7.3888778687 0.7012566328
          12.191184998 -15.821990967 0.35405248404 4.3568291664 -14.994878769 -0.57364153862
          0 0 0 -0.79819333553 -5.8048415184 -0.13943700492
          4.3665471077 -15.005747795 -0.28808438778 9.4760961533 -15.49048233 0.3290668726
          -0.15323314071 -1.8388586044 -0.011565436609 -0.19190107286 -9.7061862946 0.33602327108
          -0.90344667435 -5.905582428 -0.035646375269 3.5585041046 -12.20276165 0.58890342712
          0.26389881968 -12.482028008 -0.74499279261 1.4482853413 -12.162075043 0.29786393046
          -0.96726238728 -5.1201715469 0.28263893723 -1.3742775917 -7.7899703979 0.39078500867
          -0.94081556797 -10.375306129 -0.8236027956 0.30355295539 -12.459313393 -0.3622969985
          4.3687381744 -15.01116848 -4.4650164455e-07 6.8801388741 -15.208868027 0.30329856277
          -0.43697276711 -3.7215292454 0.014656015672 -0.89903700352 -10.309244156 -0.42261594534
          -0.9636413455 -5.9307994843 -5.09358415e-07 13.312175751 -18.602245331 -0.67433106899
          0 0 0 -0.083861291409 -2.0015084743 0.0066041378304
          0.3446033597 -12.49652195 -6.8338965775e-07 2.0989432335 -14.953914642 -0.6042560935
          10.520171165 -18.282030106 -0.63285303116 12.16345787 -15.787595749 0.70893198252
          0 0 0 0 0 0
          -0.84907901287 -10.288678169 -7.1294715553e-07 -1.1059188843 -8.3009490967 -0.16771012545
          13.33108902 -18.631750107 -0.33622100949 2.1116495132 -14.936502457 -0.3011058867
          10.538236618 -18.312295914 -0.31454873085 9.4502134323 -15.454586029 0.66167587042
          -0.094361558557 -2.0180225372 0.0085309967399 -0.19834758341 -9.757068634 0.72433108091
          -0.10923267156 -1.7974278927 -0.0023779231124 -1.434925437 -8.2546691895 -0.14263305068
          4.3665466309 -15.005746841 0.28808349371 -0.90344667435 -5.905582428 0.03564536199
          7.8098430634 -18.010519028 -0.58787077665 1.4449318647 -12.161844254 0.59904354811
          -1.3740448952 -7.8351345062 0.75244319439 0 0 0
          -0.27966251969 -4.0844416618 -0.017209157348 13.336875916 -18.641304016 -9.9670607767e-08
          -0.10479515791 -2.0304143429 -1.814369881e-07 2.1212410927 -14.94474411 -5.9238652739e-07
          7.824616909 -18.034341812 -0.29186439514 6.8619074821 -15.179223061 0.61055392027
          10.544295311 -18.321060181 -2.2893748053e-07 -0.38501235843 -3.6410152912 0.064702764153
          -1.49928689 -8.2073030472 -6.8007966547e-07 -0.31189736724 -4.1214237213 0.0065171956085
          0.30355295539 -12.459313393 0.36229562759 -0.89903664589 -10.309244156 0.42261442542
          -0.63731789589 -12.971063614 -0.84325152636 7.8295998573 -18.04016304 -3.5871016735e-07
          -0.32806476951 -4.1405162811 -4.3244830294e-07 -0.48977777362 -13.03704834 -0.41748040915
          5.1541442871 -17.8133564 -0.55779999495 0 0 0
          -0.56275874376 -6.3972005844 -0.007229948882 13.33108902 -18.631750107 0.33622080088
          -0.094361625612 -2.0180225372 -0.0085313646123 2.1116495132 -14.936501503 0.3011046946
          5.1655373573 -17.819368362 -0.27943438292 4.3568291664 -14.994877815 0.57364064455
          10.538236618 -18.312295914 0.31454828382 0.77948284149 -15.231631279 -0.73743033409
          -1.894033432 -10.838755608 -0.85705131292 -0.79819357395 -5.8048410416 0.13943591714
          -0.63981831074 -6.4454169273 0.025939522311 -1.4349253178 -8.2546691895 0.14263166487
          0.81836688519 -15.191197395 -0.35701790452 -1.869784832 -10.810014725 -0.42384150624
          -0.3886346221 -13.122941017 -8.6653335529e-07 0.26389870048 -12.482027054 0.7449914217
          7.824616909 -18.034341812 0.29186367989 -0.94081497192 -10.375306129 0.82360118628
          5.1688742638 -17.822540283 -4.9424772897e-07 -0.31189748645 -4.1214237213 -0.0065180645324
          -0.71256572008 -6.4776611328 -6.9475169084e-07 0.85147362947 -15.202095985 -7.4414549545e-07
          -1.8890703917 -10.783966064 -9.52611515e-07 -0.85092020035 -8.9306774139 0.021782202646
          2.7518086433 -17.750823975 -0.59193575382 13.312175751 -18.602243423 0.67433089018
          0 0 0 -0.48977777362 -13.03704834 0.41747868061
          -0.083861604333 -2.0015082359 -0.0066045867279 -1.2956523895 -9.1028985977 0.086143650115
          2.0989429951 -14.953914642 0.60425490141 10.520171165 -18.282030106 0.63285255432
          2.7687227726 -17.727546692 -0.29524937272 14.418839455 -21.466539383 -0.65387994051
          0 0 0 -1.1059190035 -8.3009490967 0.16770865023
          14.430860519 -21.494655609 -0.32587632537 -0.04405477643 -2.1254937649 0.00377483177
          11.554857254 -21.154003143 -0.61413913965 5.1655373573 -17.819368362 0.27943339944
          0 0 0 -0.63981842995 -6.4454169273 -0.025940926746
          11.566660881 -21.182285309 -0.30537796021 -0.048651665449 -2.1326861382 0.0045382045209
          0.81836682558 -15.191197395 0.3570164144 -1.8697845936 -10.810014725 0.42383944988
          7.8098430634 -18.010519028 0.5878700614 -1.5147696733 -9.0789833069 -9.4796456551e-07
          2.7782206535 -17.732093811 -6.3848887066e-07 -0.27966299653 -4.0844416618 0.017208239064
          -0.16016720235 -15.693723679 -0.80336284637 -0.13464334607 -4.3317842484 -0.00092300347751
          8.7402610779 -20.88243103 -0.57187318802 -1.3200391531 -13.566763878 -0.76213306189
          14.435133934 -21.503530502 -1.5470054393e-07 0 0 0
          -0.1058292836 -15.651090622 -0.39266341925 11.570936203 -21.190303802 -2.7949167247e-07
          -0.050826344639 -2.1393661499 -2.4850834279e-07 8.7514324188 -20.904611588 -0.2840218246
          -0.14964909852 -4.3523793221 0.0089467670768 -1.3791075945 -13.578255653 -0.35090646148
          -0.63731789589 -12.971063614 0.84324979782 -0.065245315433 -15.644046783 -9.0480597237e-07
          -0.70271551609 -12.171874046 -0.57608801126 -1.2956525087 -9.1028985977 -0.08614552021
          1.3360489607 -17.98456192 -0.72796660662 8.7555522919 -20.909959793 -4.04571324e-07
          5.1541442871 -17.813354492 0.55779898167 2.7687225342 -17.727546692 0.29524809122
          -1.4276489019 -13.600962639 -9.7575866675e-07 -0.162679106 -4.3655357361 -5.6953865624e-07
          -0.5627592206 -6.3972001076 0.0072285425849 14.430860519 -21.494655609 0.32587599754
          5.9606223106 -20.669958115 -0.54348528385 -2.8844873905 -11.269870758 -0.39403513074
          -0.23428279161 -6.7444558144 -0.010130858049 1.371989131 -17.941665649 -0.35379719734
          0.77948272228 -15.231630325 0.73742890358 -1.8940329552 -10.838755608 0.85704928637
          0 0 0 -0.30830523372 -6.7803931236 0.01539719291
          11.566660881 -21.182285309 0.30537739396 -0.048651747406 -2.1326861382 -0.0045387013815
          5.9716243744 -20.676517487 -0.27187222242 -2.8649089336 -11.294350624 -6.4659235477e-07
          1.4007368088 -17.946857452 -7.9011158505e-07 -0.10582923144 -15.651090622 0.39266163111
          5.9753866196 -20.679584503 -5.3493943142e-07 -0.34095293283 -6.8188152313 -9.1629402732e-07
          8.7514324188 -20.904611588 0.28402101994 -0.14964926243 -4.3523793221 -0.0089479153976
          -1.3791074753 -13.578255653 0.35090449452 -0.85092049837 -8.9306774139 -0.021784048527
          2.7518081665 -17.750822067 0.59193450212 3.4186985493 -20.575302124 -0.57494622469
          14.418839455 -21.466537476 0.65387964249 0 0 0
          -0.3113605082 -9.4637718201 -0.12766593695 -0.044055171311 -2.1254937649 -0.0037754005753
          11.554857254 -21.154003143 0.61413860321 -2.8844876289 -11.269870758 0.39403355122
          1.371989131 -17.941665649 0.35379564762 3.4373660088 -20.552635193 -0.28649717569
          -0.92334353924 -16.277477264 -0.85413849354 -0.42593958974 -9.6468696594 -0.052736833692
          -0.30830541253 -6.7803931236 -0.015398995951 5.9716243744 -20.676517487 0.27187114954
          -0.97765678167 -16.15230751 -0.42974174023 0.30961203575 -18.362150192 -0.7963591218
          -2.2234597206 -14.046705246 -0.72762805223 15.501078606 -24.383436203 -0.64336544275
          0 0 0 12.567329407 -24.074842453 -0.60293602943
          -0.16016715765 -15.693722725 0.80336105824 -0.13464391232 -4.3317837715 0.00092185061658
          8.7402610779 -20.88243103 0.57187235355 -2.392686367 -14.04240799 -0.33036077023
          0.34955328703 -18.333892822 -0.39752995968 -1.3200381994 -13.566763878 0.76213085651
          15.508043289 -24.412214279 -0.32069930434 0 0 0
          -0.47473031282 -9.6634988785 -1.2209762872e-06 3.4473500252 -20.55651474 -6.7390317326e-07
          0.0032401147764 -2.162977457 0.00030989974039 12.574503899 -24.103399277 -0.300067693
          0.0041668419726 -2.1680254936 0.00031185866101 -1.0126976967 -16.082494736 -1.0518593854e-06
          9.6603708267 -23.801542282 -0.56103777885 -2.4648227692 -14.051940918 -8.6993486548e-07
          0.37918835878 -18.337873459 -9.4232950687e-07 15.511066437 -24.421245575 -2.1287758045e-07
          0 0 0 0.010975624435 -4.4024090767 0.0026925534476
          9.6686573029 -23.824594498 -0.27890324593 12.577366829 -24.111621857 -3.2992610954e-07
          -0.70271629095 -12.171873093 0.5760858655 1.3360487223 -17.98456192 0.7279650569
          0.0042976900004 -2.1731259823 -3.1748612628e-07 0.012111361139 -4.4184803963 0.0017920559039
          5.9606223106 -20.669956207 0.54348421097 -0.23428338766 -6.7444558144 0.010129084811
          -0.70421922207 -12.843014717 -0.39182960987 1.9368265867 -20.760391235 -0.7157073617
          -0.42593967915 -9.6468696594 0.052734375 3.4373657703 -20.552635193 0.28649583459
          -0.56941825151 -12.624070168 -0.24786023796 1.9698195457 -20.714708328 -0.34714755416
          -0.97765678167 -16.15230751 0.42973962426 9.6719551086 -23.830518723 -4.4705538471e-07
          0.012041334994 -4.4318642616 -7.057979019e-07 6.775780201 -23.575771332 -0.53149658442
          -2.3926868439 -14.04240799 0.33035895228 0.34955334663 -18.333892822 0.39752808213
          15.508043289 -24.412214279 0.32069885731 0 0 0
          0.026026042178 -6.8318595886 0.0045678955503 6.7855577469 -23.585601807 -0.26564136147
          12.574503899 -24.103399277 0.30006703734 0.024832323194 -6.8909802437 0.0039126602933
          -0.69312697649 -12.637485504 -1.6481329794e-06 1.9931772947 -20.715158463 -8.2263625245e-07
          0.0041667665355 -2.1680254936 -0.00031248293817 9.6686573029 -23.82459259 0.27890235186
          6.7890138626 -23.589633942 -5.6917065194e-07 0.023938328028 -6.9162611961 -1.1066456409e-06
          3.4186983109 -20.575300217 0.57494485378 -0.53337621689 -18.853582382 -0.86564189196
          0.01211120002 -4.4184803963 -0.0017934620846 -0.31136101484 -9.4637718201 0.12766361237
          -1.6730372906 -16.787366867 -0.95540493727 -0.49636471272 -18.837154388 -0.43362054229
          -0.92334353924 -16.277477264 0.85413634777 -1.9061824083 -16.468519211 -0.48219156265
          -0.56941825151 -12.624070168 0.2478569746 1.9698195457 -20.714708328 0.34714591503
          0.30961206555 -18.362150192 0.79635727406 -2.2234609127 -14.046705246 0.72762548923
          0.053734954447 -9.5850763321 0.0089050717652 4.1127128601 -23.448648453 -0.55683332682
          15.501077652 -24.383436203 0.64336502552 0 0 0
          12.567329407 -24.074842453 0.60293537378 0.048930067569 -9.626241684 0.0085136033595
          -0.47512537241 -18.846084595 -1.0989373322e-06 -1.6809024811 -17.693523407 -0.51992022991
          0.83695238829 -21.064844131 -0.78082704544 4.1322603226 -23.430648804 -0.2767906785
          0.0032396812458 -2.162977457 -0.00031058129389 -2.0916337967 -16.257638931 -1.2446871551e-06
          6.7855577469 -23.585601807 0.26564022899 0.024832155555 -6.8909802437 -0.0039148381911
          0.8685593605 -21.026870728 -0.38766720891 -2.3170692921 -19.701507568 0.12668585777
          9.6603708267 -23.801542282 0.56103688478 0.038783319294 -9.6518106461 -1.4999786799e-06
          4.1422948837 -23.435279846 -6.9931599e-07 0.010975002311 -4.4024090767 -0.0026939348318
          0.8863760829 -21.018356323 -9.6558881069e-07 16.571516037 -27.358020782 -0.63974279165
          0 0 0 -2.6392605305 -19.830144882 -2.8944398309e-06
          16.575023651 -27.388835907 -0.31903350353 0 0 0
          -0.49636459351 -18.837154388 0.43361836672 13.566994667 -27.051052094 -0.59690082073
          -0.70421928167 -12.843014717 0.391826123 1.9368264675 -20.760391235 0.71570575237
          0.049874465913 -2.1152963638 -0.0024655838497 -1.9061834812 -16.468519211 0.48218908906
          13.570960999 -27.08134079 -0.29738971591 0.05644594878 -2.1220009327 -0.003245708067
          6.775780201 -23.575769424 0.53149545193 16.577188492 -27.398561478 -2.7413929615e-07
          0.048930022866 -9.626241684 -0.0085165640339 10.574151039 -26.775384903 -0.55364531279
          0.1546163559 -4.3095870018 0.0081483274698 4.1322603226 -23.430648804 0.27678927779
          0 0 0 2.5977864265 -23.562923431 -0.69519162178
          0.19365252554 -13.395041466 -0.015003069304 0.026025403291 -6.8318595886 -0.0045699812472
          0.17284977436 -4.3303151131 -0.0038247026969 10.580467224 -26.801034927 -0.27547901869
          13.572779655 -27.090309143 -3.8019345538e-07 0.86855942011 -21.026870728 0.38766530156
          0.077422201633 -13.731006622 0.017764188349 2.6323485374 -23.519889832 -0.3371244669
          -2.3170697689 -19.701509476 -0.12669222057 0.058982238173 -2.1279127598 -3.8760501297e-07
          -1.1133440733 -19.495002747 -0.91489952803 10.583083153 -26.808225632 -4.8611741477e-07
          -0.53337609768 -18.853580475 0.86563974619 0.18540370464 -4.3425927162 -8.3280747276e-07
          0.04835582152 -13.82536602 -1.9262854494e-06 -1.1105031967 -19.463558197 -0.45914593339
          2.6529738903 -23.518583298 -8.4294879343e-07 -1.6730391979 -16.78736496 0.95540243387
          16.575023651 -27.388835907 0.31903293729 7.5968513489 -26.538890839 -0.52058136463
          -2.4737997055 -17.370702744 -1.1757006645 0 0 0
          0.27896666527 -6.708647728 0.026347251609 -0.033576659858 -21.488162994 -0.8308891654
          0.35015940666 -6.7475867271 -0.0043180552311 7.6058154106 -26.553714752 -0.26036834717
          13.570960045 -27.08134079 0.29738897085 -2.27292943 -17.108163834 -0.71474844217
          0.0059717940167 -21.453819275 -0.40743944049 0.056445900351 -2.1220011711 0.0032449625432
          0.053734496236 -9.5850763321 -0.0089078713208 4.1127123833 -23.448646545 0.55683189631
          -1.127918005 -19.460535049 -1.2746736502e-06 -1.6808989048 -17.693515778 0.51991724968
          0.83695244789 -21.064844131 0.78082513809 7.6091108322 -26.559329987 -5.9716563783e-07
          10.580467224 -26.801034927 0.27547806501 -2.5355603695 -17.307632446 -3.5276418657e-06
          0.17284967005 -4.3303151131 0.003823063802 0.38012740016 -6.7830581665 -1.2597341765e-06
          0.0774224177 -13.731006622 -0.017768042162 2.632348299 -23.519889832 0.33712276816
          0.020470613614 -21.441768646 -1.1034433101e-06 1.4342257977 -23.755058289 -0.7508097291
          0.14608612657 -19.292570114 0.089058801532 1.4665291309 -23.720674515 -0.37141299248
          0.063249215484 -19.669834137 0.011878469028 16.57151413 -27.358020782 0.63974225521
          0 0 0 -1.1105030775 -19.463558197 0.45914342999
          0.39428943396 -9.4234113693 0.13869343698 4.8357753754 -26.381593704 -0.53629559278
          0.49021965265 -9.5904359818 0.068222910166 13.566993713 -27.051050186 0.59690010548
          0.049874030054 -2.1152966022 0.0024648085237 4.8560137749 -26.369823456 -0.26694688201
          7.6058154106 -26.553714752 0.26036712527 -2.27292943 -17.108163834 0.71474468708
          0.35015928745 -6.747587204 0.0043155774474 0.0059719220735 -21.453819275 0.40743726492
          1.4788043499 -23.707550049 -9.7666304555e-07 0.058713506907 -19.807325363 -2.2538640678e-06
          10.574151039 -26.775384903 0.55364435911 0.15461577475 -4.3095870018 -0.0081498930231
          2.5977861881 -23.562923431 0.69518995285 0.52488672733 -9.6252155304 -1.6113013999e-06
          0.19365306199 -13.395040512 0.014999514446 4.8660564423 -26.374794006 -7.151365935e-07
          17.639072418 -30.396705627 -0.64079982042 0 0 0
          -1.1133438349 -19.495002747 0.91489714384 1.4665291309 -23.720674515 0.37141105533
          0 0 0 14.55967617 -30.089822769 -0.59420764446
          -1.9465813637 -19.732011795 -1.0632396936 0.06324980408 -19.669836044 -0.011883142404
          0.087012909353 -1.9865133762 -0.004818723537 -0.71484273672 -22.05188179 -0.87231653929
          17.640375137 -30.430627823 -0.31975677609 7.596850872 -26.538890839 0.52058017254
          14.561778069 -30.123027802 -0.29630112648 0.10068552941 -1.9980163574 -0.0055794464424
          -2.4737989902 -17.370700836 1.1756979227 -1.6571315527 -19.872018814 -0.51442205906
          0.27896612883 -6.7086482048 -0.026349565014 3.3352770805 -26.404975891 -0.66403275728
          0.49021959305 -9.5904359818 -0.068226017058 -0.033576462418 -21.488162994 0.83088701963
          0.79695355892 -12.640275955 0.43360546231 4.856013298 -26.369823456 0.2669454515
          -0.70570015907 -21.99228096 -0.42328903079 0.64674335718 -12.61767292 0.23545229435
          3.3732376099 -26.368005753 -0.32105535269 11.483863831 -29.813007355 -0.54800069332
          17.642026901 -30.441453934 -3.3849048009e-07 0.29703098536 -4.0416564941 0.028477123007
          0 0 0 11.488803864 -29.841892242 -0.2729524374
          0.33286994696 -4.074889183 0.0021832215134 14.563041687 -30.133169174 -4.3031880637e-07
          0.52838748693 -24.05497551 -0.7758654356 -1.4462753534 -20.079441071 -1.3501795593e-06
          -0.73414480686 -21.953418732 -1.2182882756e-06 -0.13006804883 -17.050455093 -0.055394705385
          0.11053258181 -2.0071566105 -4.2930133759e-07 0.56096410751 -24.025123596 -0.38138192892
          3.3911664486 -26.365465164 -8.5203691924e-07 0.068629652262 -17.251237869 -0.0025356586557
          0.77489179373 -12.589076996 -1.6954522835e-06 1.4342259169 -23.755058289 0.75080782175
          11.490592003 -29.850284576 -5.2213573554e-07 0.14608800411 -19.292570114 -0.089063055813
          0.34913787246 -4.0896267891 -9.2512595984e-07 8.4193191528 -29.568489075 -0.51050502062
          17.640375137 -30.430625916 0.31975609064 0.56107378006 -24.004560471 -1.0951794138e-06
          0.60533797741 -6.3364706039 0.029424747452 0.39428904653 -9.4234113693 -0.13869641721
          0.050361052155 -17.430898666 -2.2470837848e-06 4.8357748985 -26.381593704 0.53629416227
          0 0 0 8.4285106659 -29.588945389 -0.25457242131
          0.6829264164 -6.3832983971 -0.0092659490183 14.561778069 -30.123025894 0.29630026221
          -1.6571309566 -19.872018814 0.51441931725 -0.70569992065 -21.99228096 0.4232866168
          0.10068554431 -1.9980164766 0.0055786250159 3.3732376099 -26.368005753 0.32105362415
          0.64674329758 -12.617671967 -0.23545591533 11.488803864 -29.841892242 0.27295139432
          8.4322443008 -29.596294403 -6.183825576e-07 2.1304578781 -26.465154648 -0.70578360558
          2.0463111401 -18.878437042 0.10795430839 0.74949270487 -6.4114465714 -1.3788078377e-06
          0.33286994696 -4.0748896599 -0.0021850208286 2.4077494144 -19.655742645 -0.13981406391
          0.56096422672 -24.025123596 0.38137975335 2.1624686718 -26.439109802 -0.34815010428
          0.068630054593 -17.251239777 0.0025314909872 5.5841856003 -29.378879547 -0.5165386796