<?xml version="1.0"?>
<VTKFile type="UnstructuredGrid" version="0.1" byte_order="LittleEndian" header_type="UInt32" compressor="vtkZLibDataCompressor">
  <UnstructuredGrid>
    <Piece NumberOfPoints="6405" NumberOfCells="4800">
      <PointData>
        <DataArray type="Float32" Name="DISPLACEMENT" NumberOfComponents="3" ComponentName0="X-DISPLACEMENT" ComponentName1="Y-DISPLACEMENT" ComponentName2="Z-DISPLACEMENT" format="ascii" RangeMin="0" RangeMax="256.81595912">
          0 0 0 0 0 0
          2.0115685463 -1.2403335571 -0.9297144413 0 0 0
          1.2964496613 -0.73800778389 -0.72067421675 0 0 0
          1.8374390602 -1.3669490814 -0.36947822571 1.128246665 -0.84216958284 -0.29396057129
          0 0 0 3.6037788391 -2.27166605 -0.95058459044
          0 0 0 3.5531413555 -2.4200079441 -0.49099645019
          2.6026406288 -1.8682889938 -0.79359596968 0 0 0
          0 0 0 1.8438286781 -1.4100012779 -9.2977086297e-07
          0.94530391693 -0.50512582064 -0.55632835627 1.1237101555 -0.86325484514 -4.4355101636e-07
          2.547973156 -1.9868117571 -0.40537530184 0.81243187189 -0.60164958239 -0.22518782318
          3.5130486488 -2.4618501663 -2.1706391635e-06 1.9001249075 -1.5272635221 -0.62205129862
          0 0 0 2.5133650303 -2.0260219574 -1.2384766706e-06
          1.8423857689 -1.6382229328 -0.31932252645 0 0 0
          5.0466284752 -3.5874214172 -0.88985645771 0 0 0
          0.806442976 -0.61964356899 1.0878243728e-07 0 0 0
          0 0 0 1.8374390602 -1.3669497967 0.36947637796
          3.8301324844 -3.2009484768 -0.75743699074 5.0622692108 -3.6939744949 -0.4541657269
          0.68960219622 -0.33760291338 -0.377969414 1.1282461882 -0.84217059612 0.29395961761
          3.8429572582 -3.3017208576 -0.3860553205 0.60241609812 -0.44448590279 -0.157934919
          1.8116474152 -1.6681745052 -1.7524206442e-07 3.5531408787 -2.420009613 0.49099200964
          0 0 0 0 0 0
          1.3044300079 -1.3032531738 -0.43333268166 2.8658413887 -2.8958554268 -0.62569499016
          5.0494933128 -3.7330181599 -3.7660024645e-06 2.5479719639 -1.9868137836 0.40537270904
          2.8573620319 -2.9917683601 -0.31770420074 0.81243133545 -0.60165077448 0.22518794239
          3.8341588974 -3.3356199265 -2.3848861019e-06 1.2440932989 -1.4125850201 -0.2237637192
          0.60234314203 -0.45946151018 9.4043110721e-07 0 0 0
          6.3835582733 -5.0701122284 -0.79686039686 0 0 0
          4.9887914658 -4.7190384865 -0.69912976027 1.8423845768 -1.6382251978 0.31932207942
          6.4193854332 -5.1472458839 -0.40370708704 2.0115675926 -1.2403351068 0.92971241474
          0 0 0 0 0 0
          1.2214080095 -1.4396601915 1.0782666777e-06 2.8474535942 -3.0212841034 -8.8778375584e-07
          0.2584130168 -0.25787949562 -0.16217635572 5.0207371712 -4.7957353592 -0.35258084536
          1.2964482307 -0.73800981045 0.72067296505 1.9930579662 -2.6929750443 -0.49016240239
          0 0 0 5.0622682571 -3.693977356 0.45415809751
          0.21155925095 -0.39113792777 -0.083866558969 1.961009264 -2.7789375782 -0.25018623471
          3.8429553509 -3.3017237186 0.38605046272 0.60241550207 -0.4444873333 0.15793664753
          3.8040719032 -4.4423799515 -0.60260641575 0.46247926354 -1.1744644642 -0.25167304277
          6.4202980995 -5.1746640205 -5.6598664742e-06 3.6037766933 -2.2716696262 0.95057982206
          0 0 0 0 0 0
          3.8175406456 -4.5166010857 -0.30366396904 2.6026377678 -1.8682929277 0.79359304905
          5.0255222321 -4.8226704597 -3.8803068492e-06 0.39860665798 -1.2816461325 -0.13748712838
          0.94530296326 -0.50512832403 0.55632823706 0.22024910152 -0.42438462377 2.1131397716e-06
          1.9502704144 -2.8061685562 7.9366941463e-07 2.8573601246 -2.991771698 0.3177023232
          1.2440919876 -1.4125874043 0.22376577556 3.8183121681 -4.5420746803 -2.0099971607e-06
          1.9001226425 -1.5272680521 0.62205058336 0.38591319323 -1.309423089 2.4285639029e-06
          2.7076320648 -4.2594251633 -0.51308959723 6.419383049 -5.1472496986 0.40369564295
          5.0466251373 -3.5874266624 0.88984847069 0 0 0
          7.6091022491 -6.6747026443 -0.72138899565 0 0 0
          0 0 0 0.93178653717 -2.5431306362 -0.40268942714
          2.7042794228 -4.3267555237 -0.25914946198 7.6435213089 -6.7319531441 -0.36286345124
          6.0747056007 -6.3492627144 -0.64713972807 5.0207343102 -4.7957391739 0.35257297754
          0.048950254917 -0.41103106737 -0.18710634112 0 0 0
          3.8301281929 -3.2009544373 0.75743180513 0.68960171938 -0.33760592341 0.3779708147
          0.88549607992 -2.6130337715 -0.19600576162 0.21155820787 -0.39113983512 0.083870492876
          -0.038302246481 -0.46243205667 -0.062933631241 1.9610073566 -2.7789409161 0.25018772483
          6.1064605713 -6.4090614319 -0.32400906086 3.817538023 -4.5166049004 0.30365985632
          2.7016825676 -4.3524217606 6.0118424017e-08 7.6497740746 -6.7525548935 -7.8394778029e-06
          0.2591021955 -1.4677541256 -0.36876651645 0.39860469103 -1.2816487551 0.13749189675
          0 0 0 4.7079882622 -6.0882210732 -0.5710709095
          1.3044281006 -1.3032580614 0.43333441019 2.8658378124 -2.8958618641 0.62569284439
          0.87481880188 -2.6401593685 2.7089256491e-06 6.1146292686 -6.4300394058 -5.7132988331e-06
          -0.0050206058659 -0.52987837791 4.2889796532e-06 0.23018291593 -1.453482151 -0.13977573812
          4.728726387 -6.1479611397 -0.28622120619 6.3835530281 -5.070119381 0.79684859514
          0 0 0 1.6418730021 -4.1193947792 -0.45198565722
          4.9887857437 -4.7190461159 0.69912159443 0.25681364536 -1.4953085184 5.4456272665e-06
          1.6255910397 -4.1814923286 -0.21620053053 4.733736515 -6.1688137054 -3.5075206597e-06
          0.25841212273 -0.25788331032 0.16217973828 2.7042768002 -4.3267598152 0.25914949179
          3.4497404099 -5.8937263489 -0.49654194713 7.643517971 -6.7319574356 0.36284762621
          0.45985579491 -2.6074578762 -0.36794990301 1.9930547476 -2.6929819584 0.49016362429
          0 0 0 0.8854932189 -2.6130373478 0.19601106644
          3.4599573612 -5.9529299736 -0.24912823737 -0.038305174559 -0.46243408322 0.062941499054
          0.5159022212 -2.6931746006 -0.16532362998 6.1064572334 -6.4090657234 0.32399752736
          3.804066658 -4.4423880577 0.60260206461 0.46247667074 -1.1744698286 0.25167748332
          8.7448043823 -8.3605899811 -0.66937434673 0 0 0
          1.6079901457 -4.1994886398 2.4401908831e-06 7.0960412025 -8.0546598434 -0.60642814636
          8.7714118958 -8.4084100723 -0.33539882302 0 0 0
          0.0053470470011 -0.65929877758 -0.087550967932 7.1212158203 -8.105260849 -0.30249333382
          3.459553957 -5.9730205536 -1.1404858924e-06 -0.040118210018 -0.70313876867 -0.050222240388
          0.23017895222 -1.4534842968 0.13978621364 0.5528061986 -2.7605395317 5.7855781961e-06
          4.7287230492 -6.1479663849 0.28621411324 5.5752549171 -7.8084044456 -0.53914350271
          -0.2463863641 -1.6265462637 -0.29206523299 8.778468132 -8.4253063202 -1.0316445696e-05
          0 0 0 -0.22797942162 -1.6467436552 -0.16907601058
          5.5947132111 -7.8597998619 -0.26837649941 7.1285657883 -8.1224803925 -7.8893208411e-06
          -0.041124645621 -0.71422386169 4.3456852836e-06 2.7076275349 -4.2594342232 0.51308941841
          2.3042955399 -5.7360167503 -0.41099438071 7.6090955734 -6.6747112274 0.72137284279
          0 0 0 0.77605772018 -4.0738739967 -0.27297380567
          1.6255873442 -4.181497097 0.21620544791 0.93178230524 -2.5431382656 0.40269434452
          6.0746979713 -6.3492717743 0.64712786674 0.048948582262 -0.41103610396 0.18711324036
          0.78684419394 -4.1665005684 -0.15384395421 2.3033661842 -5.7996850014 -0.20688022673
          3.4599540234 -5.9529356956 0.24912594259 0.51589846611 -2.6931786537 0.16533499956
          5.5993132591 -7.8768610954 -5.3529133766e-06 -0.22933068871 -1.6420670748 8.9749482868e-06
          4.173517704 -7.636367321 -0.47170034051 -0.068694025278 -2.8297784328 -0.2924439013
          0.25909802318 -1.4677609205 0.36877691746 8.7714071274 -8.4084148407 0.33537808061
          4.7079815865 -6.0882306099 0.57106357813 0 0 0
          2.2990655899 -5.8158764839 1.4803523527e-06 0.78743088245 -4.1777706146 5.1684119171e-06
          4.1860766411 -7.6847019196 -0.23303839564 7.1212110519 -8.1052656174 0.30247744918
          -0.085178203881 -2.8945510387 -0.12037505955 -0.040119707584 -0.70314073563 0.050230506808
          1.6418670416 -4.1194047928 0.45199066401 4.1874365807 -7.6989202499 -2.6728303055e-06
          5.5947089195 -7.859805584 0.26836568117 -0.2279830575 -1.6467456818 0.16909407079
          -0.071533717215 -2.9309608936 9.3193884823e-06 9.8209733963 -10.115489006 -0.63799738884
          0 0 0 9.8390359879 -10.16095829 -0.31889244914
          3.4497339725 -5.893737793 0.49653956294 8.0662031174 -9.8210544586 -0.57707929611
          0.4598506391 -2.6074671745 0.36796116829 1.025303483 -5.6119189262 -0.28481686115
          -0.0073277573101 -0.82989263535 -0.057511508465 0.78684055805 -4.1665053368 0.15385456383
          2.3033633232 -5.7996912003 0.20688329637 0 0 0
          8.0841369629 -9.868601799 -0.28702589869 1.0144872665 -5.686914444 -0.15465626121
          -0.031275913119 -0.86142492294 -0.025739660487 2.8802161217 -7.5431742668 -0.40036711097
          0.15974344313 -4.3104052544 -0.32895848155 8.7447957993 -8.3605995178 0.66935324669
          0 0 0 7.0960321426 -8.0546703339 0.60641187429
          9.8450613022 -10.176563263 -1.3142977878e-05 0.11508775502 -4.3270149231 -0.13262535632
          2.8763833046 -7.5775184631 -0.20047499239 0.0053485417739 -0.65930128098 0.087557651103
          6.396586895 -9.5898427963 -0.51093047857 -0.024972857907 -1.7837269306 -0.095943644643
          0 0 0 4.1860723495 -7.6847081184 0.23303300142
          -0.085179165006 -2.8945553303 0.12039615959 8.0898294449 -9.8839559555 -1.0445937733e-05
          1.0252659321 -5.7073807716 4.5000115279e-06 6.4104166031 -9.6350450516 -0.25258478522
          -0.056791193783 -1.8520598412 -0.054041113704 -0.032053288072 -0.87197482586 4.2191654757e-06
          5.5752463341 -7.8084154129 0.53913235664 -0.2463888377 -1.6265568733 0.29208448529
          2.8747427464 -7.5870156288 2.417814926e-07 0.14547769725 -4.3702778816 8.9536470114e-06
          2.3042898178 -5.7360291481 0.41099771857 6.4117975235 -9.6468410492 -7.5788884715e-06
          -0.061383597553 -1.8637349606 7.9460405686e-06 0.77605175972 -4.0738844872 0.27298513055
          9.8390312195 -10.160963058 0.31886604428 4.8360214233 -9.4537639618 -0.44423690438
          0 0 0 -0.088254198432 -2.9553403854 -0.12176229805
          4.8417768478 -9.4926614761 -0.21565869451 8.0841312408 -9.8686075211 0.28700488806
          -0.031276654452 -0.86142629385 0.02574756369 1.0144847631 -5.6869211197 0.15466548502
          -0.10220890492 -3.0321974754 -0.068096861243 4.1735095978 -7.6363797188 0.47169473767
          1.4968303442 -7.4640750885 -0.39013046026 2.8763797283 -7.5775251389 0.20047549903
          -0.068698100746 -2.8297872543 0.29246518016 0.11508737504 -4.3270230293 0.13264346123
          0.43597242236 -5.9178347588 -0.42315402627 1.4589122534 -7.4784593582 -0.17645932734
          4.8351283073 -9.5041627884 -4.5487099669e-06 6.410410881 -9.6350507736 0.25256946683
          -0.05679262802 -1.8520624638 0.054057177156 0.41110861301 -5.8800625801 -0.14987941086
          -0.11353109777 -3.0473062992 1.1472203369e-05 10.865298271 -11.94571209 -0.62202239037
          0 0 0 -0.012334449217 -0.89202749729 -0.0066894190386
          1.4358811378 -7.4824528694 3.5535399547e-06 3.3976917267 -9.4164638519 -0.40552130342
          9.0044813156 -11.654922485 -0.55755323172 9.8209629059 -10.115499496 0.63797062635
          0 0 0 0 0 0
          0.41713967919 -5.9003310204 8.4266539488e-06 -0.12919728458 -4.3823494911 -0.11058030277
          10.876156807 -11.992684364 -0.31027698517 3.3984043598 -9.4407892227 -0.1955422312
          9.0154657364 -11.703225136 -0.27739146352 8.066192627 -9.8210659027 0.57705789804
          -0.021187409759 -0.92299687862 -0.0026337807067 1.0252988338 -5.6119322777 0.28482654691
          -0.0073260003701 -0.82989442348 0.057518996298 -0.15703624487 -4.455104351 -0.097738161683
          4.8417711258 -9.4926681519 0.21564938128 -0.10221426189 -3.0322012901 0.068118311465
          7.1818022728 -11.419346809 -0.48873493075 2.8802092075 -7.5431876183 0.4003674984
          0.15974368155 -4.3104224205 0.32897701859 0 0 0
          -0.05923037976 -1.906268239 -0.020795837045 10.880579948 -12.008199692 -1.6394791601e-05
          -0.023238088936 -0.93172818422 3.4463662359e-06 3.393273592 -9.4522676468 -1.4494670495e-06
          7.1924715042 -11.463310242 -0.24010200799 6.3965764046 -9.5898542404 0.51091474295
          9.0192842484 -11.718383789 -1.3432785636e-05 -0.024972083047 -1.7837303877 0.095957607031
          -0.13855463266 -4.4555821419 1.1833151802e-05 -0.068385228515 -1.9544614553 -0.0080252960324
          1.4589099884 -7.4784669876 0.1764665246 0.41110512614 -5.8800692558 0.14989647269
          0.69892144203 -7.6046261787 -0.39361378551 7.1950054169 -11.472545624 -1.0260182535e-05
          -0.072291329503 -1.9716385603 6.9492698458e-06 0.73374903202 -7.6346359253 -0.18079838157
          5.4433097839 -11.290138245 -0.41469761729 0 0 0
          -0.11880606413 -3.1003975868 -0.028259871528 10.876151085 -11.992690086 0.3102440834
          -0.021187700331 -0.92299765348 0.002640302293 3.3983995914 -9.4407968521 0.19553922117
          5.4222612381 -11.316417694 -0.20411799848 4.8360114098 -9.4537763596 0.44422715902
          9.0154600143 -11.703230858 0.27736446261 2.1453027725 -9.4082670212 -0.40637889504
          -0.30585753918 -6.1715707779 -0.41600549221 -0.088258743286 -2.9553449154 0.12178004533
          -0.13062173128 -3.1606452465 -0.013499086723 -0.15704959631 -4.455116272 0.097764357924
          2.1095349789 -9.4134435654 -0.19273100793 -0.28716215491 -6.1455850601 -0.21315076947
          0.74855911732 -7.6641364098 7.320707482e-06 1.4968252182 -7.4640898705 0.39013791084
          7.1924648285 -11.463316917 0.24008129537 0.43596622348 -5.917848587 0.42317095399
          5.3898935318 -11.313024521 -6.873239272e-06 -0.068386219442 -1.9544631243 0.0080386288464
          -0.13312080503 -3.1794273853 9.7537094916e-06 2.0629913807 -9.4064722061 1.9905460249e-06
          -0.27215734124 -6.1238079071 1.2308141777e-05 -0.1930603236 -4.5274529457 -0.053563795984
          3.8943655491 -11.259270668 -0.37126085162 10.865286827 -11.945723534 0.62198919058
          0 0 0 0.73374539614 -7.6346435547 0.18081317842
          -0.012332079001 -0.89202791452 0.0066956239752 -0.20382340252 -4.5908699036 -0.028384244069
          3.3976826668 -9.4164772034 0.40551808476 9.0044689178 -11.654933929 0.55752587318
          3.8707821369 -11.281774521 -0.17917706072 11.896643639 -13.868368149 -0.6151227951
          0 0 0 -0.12921838462 -4.3823699951 0.11060414463
          11.902122498 -13.917201996 -0.30662897229 -0.044057548046 -0.92315733433 0.026620399207
          9.9261579514 -13.577418327 -0.54797619581 5.4222540855 -11.31642437 0.20410397649
          0 0 0 -0.13062429428 -3.1606490612 0.013518010266
          9.9317502975 -13.627110481 -0.27303692698 -0.03809042275 -0.94724440575 0.012160945684
          2.1095323563 -9.4134511948 0.19273489714 -0.28716653585 -6.145591259 0.21317596734
          7.1817893982 -11.419358253 0.4887137711 -0.20786222816 -4.6124129295 1.1905431165e-05
          3.8336939812 -11.293397903 -3.61125376e-06 -0.059228811413 -1.9062693119 0.020807905123
          0.96209907532 -9.3974161148 -0.32386478782 -0.091336496174 -1.9640496969 0.032155346125
          7.9699454308 -13.327041626 -0.47678625584 -0.044741950929 -7.901304245 -0.41033875942
          11.904694557 -13.933116913 -2.0118002794e-05 0 0 0
          0.96585947275 -9.4247608185 -0.18262581527 9.9342393875 -13.642734528 -1.6879117538e-05
          -0.038457531482 -0.95502215624 2.5901019853e-06 7.9749054909 -13.375221252 -0.23643265665
          -0.088932141662 -2.0012683868 0.01805340685 -0.050003908575 -7.8986721039 -0.18095870316
          0.69891411066 -7.6046414375 0.39362823963 0.97519439459 -9.4252319336 5.630330179e-06
          -0.19728708267 -6.1183810234 -0.053630534559 -0.20382526517 -4.5908756256 0.028406944126
          2.6051795483 -11.261153221 -0.36484903097 7.9774785042 -13.389248848 -1.3434459106e-05
          5.4432969093 -11.290151596 0.41468274593 3.870775938 -11.28178215 0.17916969955
          -0.018748922274 -7.9158992767 1.065134893e-05 -0.088197059929 -2.0143530369 5.299575605e-06
          -0.11880793422 -3.1004021168 0.028277074918 11.902116776 -13.917207718 0.30658864975
          6.004178524 -13.148288727 -0.40748044848 -0.21713843942 -6.2123999596 -0.053119089454
          -0.14429400861 -3.1693353653 0.034701056778 2.6018998623 -11.274886131 -0.18605738878
          2.1452963352 -9.4082832336 0.40638235211 -0.30586513877 -6.1715855598 0.416031003
          0 0 0 -0.14389190078 -3.2162187099 0.019565723836
          9.9317436218 -13.627117157 0.27300307155 -0.038090411574 -0.94724464417 -0.012156018987
          5.9895200729 -13.178188324 -0.20307473838 -0.22194999456 -6.209792614 1.1659904885e-05
          2.5939002037 -11.288004875 -2.2579254733e-07 0.96585547924 -9.4247684479 0.18263694644
          5.9697656631 -13.176780701 -9.978599337e-06 -0.14505191147 -3.2330849171 7.7494023571e-06
          7.9748983383 -13.375226974 0.23640559614 -0.088932141662 -2.0012693405 -0.018043003976
          -0.050007164478 -7.8986797333 0.18098060787 -0.19306151569 -4.5274591446 0.053583506495
          3.8943543434 -11.259285927 0.37125295401 4.3029961586 -13.1241436 -0.35490697622
          11.896631241 -13.868380547 0.61508220434 0 0 0
          -0.18640628457 -4.5633711815 0.040753878653 -0.044055264443 -0.92315685749 -0.026615470648
          9.9261445999 -13.577431679 0.54794204235 -0.21714098752 -6.2124037743 0.053142316639
          2.6018953323 -11.274893761 0.18605683744 4.237511158 -13.110527992 -0.18397679925
          0.23391480744 -9.6825618744 -0.43915340304 -0.19060236216 -4.6209964752 0.020992571488
          -0.14389191568 -3.2162201405 -0.019550649449 5.9895100594 -13.178195 0.20305463672
          0.24284166098 -9.6519794464 -0.17685204744 1.312797904 -11.234092712 -0.38209280372
          -0.26582303643 -7.8046607971 -0.050962239504 12.921311378 -15.897831917 -0.61187940836
          0 0 0 10.842093468 -15.60695076 -0.5452966094
          0.96209102869 -9.3974313736 0.32387596369 -0.091334097087 -1.9640495777 -0.032145593315
          7.9699311256 -13.327054977 0.47675871849 -0.27822425961 -7.8955030441 -0.11654856801
          1.3036701679 -11.22819519 -0.178854689 -0.044749580324 -7.9013199806 0.41036131978
          12.923635483 -15.946862221 -0.30526822805 0 0 0
          -0.19263291359 -4.6391434669 9.3030239441e-06 4.1395759583 -13.074021339 -6.3576417233e-06
          -0.070812866092 -0.92259979248 0.055976491421 10.844099045 -15.656627655 -0.27212268114
          -0.053656585515 -0.94312638044 0.023743698373 0.26179346442 -9.6771965027 7.9483361333e-06
          8.7642707825 -15.349299431 -0.4776571393 -0.21879212558 -7.9289216995 1.0956163351e-05
          1.2984309196 -11.222852707 3.0720927953e-06 12.924629211 -15.962873459 -2.4274184398e-05
          0 0 0 -0.11964508146 -1.9560370445 0.076261460781
          8.7648172379 -15.399502754 -0.23866845667 10.845274925 -15.67291069 -2.0732317353e-05
          -0.19729055464 -6.1183857918 0.053652055562 2.6051702499 -11.26116848 0.36484819651
          -0.052533011883 -0.94927144051 1.7222473616e-06 -0.10646290332 -1.9879499674 0.039838939905
          6.0041604042 -13.148301125 0.40745976567 -0.14429205656 -3.1693358421 -0.034687291831
          -0.2380631566 -6.1350445747 0.043967913836 3.0238194466 -13.159798622 -0.37931463122
          -0.19060264528 -4.6209983826 -0.020974477753 4.2375035286 -13.110535622 0.18396402895
          -0.24366930127 -6.201862812 0.017893014476 3.0170512199 -13.143340111 -0.18639551103
          0.24283973873 -9.6519880295 0.17686899006 8.7656812668 -15.416773796 -1.7065831344e-05
          -0.10247335583 -1.9985899925 3.6782560073e-06 6.6566019058 -15.121868134 -0.41253736615
          -0.27822586894 -7.8955082893 0.1165708527 1.3036673069 -11.228203773 0.17886100709
          12.923628807 -15.946868896 0.30521962047 0 0 0
          -0.15207266808 -3.1457316875 0.090437032282 6.6621046066 -15.168336868 -0.20780262351
          10.844092369 -15.656634331 0.2720811367 -0.1445684731 -3.1865420341 0.04772785306
          -0.24049653113 -6.2295455933 9.9199505712e-06 3.0081453323 -13.125207901 -2.6301163416e-06
          -0.05365632847 -0.94312632084 -0.023740354925 8.7648096085 -15.399510384 0.23863422871
          6.6685776711 -15.18514061 -1.3401082469e-05 -0.14234919846 -3.1999666691 5.4543115766e-06
          4.3029818535 -13.124158859 0.35489359498 0.50608831644 -11.413949013 -0.3878017664
          -0.10646229982 -1.9879499674 -0.039831653237 -0.18640553951 -4.5633721352 -0.040737248957
          -0.51460534334 -9.9386444092 -0.42450448871 0.53779786825 -11.419701576 -0.18197216094
          0.23390774429 -9.6825771332 0.43917122483 -0.46739533544 -9.9397602081 -0.1963635087
          -0.24366974831 -6.2018647194 -0.017873629928 3.0170462132 -13.14334774 0.18639031053
          1.3127908707 -11.234108925 0.38209956884 -0.26582604647 -7.8046679497 0.050982858986
          -0.17543463409 -4.5266513824 0.099818311632 4.641515255 -14.965866089 -0.35745787621
          12.921297073 -15.897846222 0.61183065176 0 0 0
          10.842079163 -15.606965065 0.54525488615 -0.1727425456 -4.5724449158 0.052465461195
          0.53444463015 -11.410504341 5.6814560594e-06 -0.33080708981 -7.9063720703 0.0027256913017
          1.8945702314 -13.17636776 -0.38250505924 4.6136159897 -14.984582901 -0.20059293509
          -0.070810839534 -0.92259883881 -0.055972922593 -0.093362107873 -9.6426744461 9.8990112747e-06
          6.6620941162 -15.168343544 0.20777565241 -0.14456775784 -3.1865422726 -0.047717139125
          1.8696328402 -13.164085388 -0.17923314869 -0.3252684176 -7.9726610184 0.0053824726492
          8.7642555237 -15.349313736 0.47762265801 -0.1730350852 -4.589363575 6.7190412665e-06
          4.5565009117 -14.982583046 -9.3121998361e-06 -0.11964236945 -1.956035614 -0.076254419982
          1.8297110796 -13.14057827 5.9197907376e-07 13.939274788 -18.03717041 -0.60920661688
          0 0 0 -0.29771202803 -7.9622235298 1.0021118214e-05
          13.94039917 -18.085050583 -0.30416691303 0 0 0
          0.53779584169 -11.419710159 0.18198408186 11.754827499 -17.748338699 -0.54473227262
          -0.23806345463 -6.1350455284 -0.04395000264 3.0238103867 -13.159813881 0.3793092072
          -0.094316698611 -0.89350706339 0.082067459822 -0.46739321947 -9.9397706985 0.19638492167
          11.75490284 -17.796201706 -0.2723159194 -0.066484153271 -0.91119617224 0.034492027014
          6.656583786 -15.121882439 0.41251012683 13.940556526 -18.100791931 -2.8749160265e-05
          -0.17274190485 -4.5724453926 -0.052452258766 9.5713605881 -17.485401154 -0.48137977719
          -0.14049145579 -1.8825354576 0.11978482455 4.6136045456 -14.984587669 0.20057456195
          0 0 0 3.4766523838 -14.989671707 -0.36302757263
          -0.20012067258 -6.1120910645 0.10257547349 -0.15207013488 -3.1457300186 -0.090426854789
          -0.1171964854 -1.9120725393 0.061548084021 9.5702638626 -17.535177231 -0.24032703042
          11.754740715 -17.812026978 -2.4863718863e-05 1.8696309328 -13.164092064 0.1792345047
          -0.20061081648 -6.1586699486 0.054224465042 3.4911448956 -15.009047508 -0.15647616982
          -0.32526963949 -7.9726643562 -0.0053632049821 -0.064225651324 -0.91665405035 9.248360584e-07
          -0.23453013599 -11.680286407 -0.37437608838 9.5699930191 -17.552230835 -2.0881623641e-05
          0.50608205795 -11.413964272 0.38781288266 -0.11097936332 -1.9210427999 2.1251389626e-06
          -0.19990520179 -6.1708025932 7.4235140346e-06 -0.21784573793 -11.696992874 -0.14986908436
          3.4934988022 -15.034786224 -4.4869448175e-06 -0.51461035013 -9.938659668 0.42452636361
          13.940392494 -18.085058212 0.30410939455 7.3670082092 -17.241773605 -0.41307252645
          -0.44975802302 -9.7811479568 0.091584980488 0 0 0
          -0.14922852814 -3.0351572037 0.14610257745 0.76415741444 -13.150022507 -0.32142484188
          -0.1363350749 -3.0730564594 0.075447559357 7.3735737801 -17.297489166 -0.20852467418
          11.754896164 -17.796209335 0.27226617932 -0.43476858735 -9.8587760925 -0.091565862298
          0.76283061504 -13.183009148 -0.14986468852 -0.066483765841 -0.91119593382 -0.034490164369
          -0.17543268204 -4.5266494751 -0.099805831909 4.6414971352 -14.96587944 0.35743832588
          -0.19663643837 -11.69018364 6.0041484176e-06 -0.33080944419 -7.9063749313 -0.0027074574027
          1.8945637941 -13.176381111 0.38250640035 7.3814091682 -17.319999695 -1.691502257e-05
          9.5702552795 -17.53518486 0.24028523266 -0.38206923008 -9.8560562134 9.5305977084e-06
          -0.11719571054 -1.9120721817 -0.061543788761 -0.13313642144 -3.0828127861 3.2778582408e-06
          -0.20061051846 -6.1586709023 -0.054209884256 3.491140604 -15.00905323 0.15646705031
          0.75557094812 -13.206498146 3.1696142742e-06 2.3285017014 -15.010248184 -0.3408575654
          -0.24084271491 -7.8706412315 0.10604975373 2.30727458 -14.992824554 -0.15775761008
          -0.24032129347 -7.9202451706 0.046258740127 13.939260483 -18.037185669 0.60914903879
          0 0 0 -0.21784447134 -11.697002411 0.14988344908
          -0.14412716031 -4.4023447037 0.15481029451 5.1457576752 -17.013469696 -0.33726128936
          -0.14008656144 -4.4421896935 0.082635991275 11.754812241 -17.748355865 0.54468244314
          -0.094315081835 -0.8935059309 -0.082065246999 5.1666460037 -17.066432953 -0.17848546803
          7.3735642433 -17.297496796 0.20849074423 -0.43477123976 -9.8587818146 0.091584727168
          -0.13633407652 -3.0730559826 -0.075441017747 0.76282817125 -13.18301487 0.14987112582
          2.2821848392 -14.972216606 -1.1409165381e-06 -0.23267123103 -7.9366908073 7.6620190157e-06
          9.5713453293 -17.485416412 0.48133784533 -0.14048911631 -1.8825335503 -0.11978041381
          3.4766433239 -14.989684105 0.36301866174 -0.13723215461 -4.4523839951 4.1865469029e-06
          -0.20011980832 -6.1120901108 -0.10256166011 5.1811614037 -17.095453262 -1.2957701074e-05
          14.949653625 -20.281368256 -0.60611206293 0 0 0
          -0.23453296721 -11.680300713 0.37439090014 2.3072721958 -14.992830276 0.1577553153
          0 0 0 12.663945198 -19.994894028 -0.54469382763
          -0.90250301361 -11.925270081 -0.31628885865 -0.2403215915 -7.9202470779 -0.046243678778
          -0.10913783312 -0.83986520767 0.10178260505 0.065871052444 -13.415226936 -0.38251182437
          14.950217247 -20.327459335 -0.30302143097 7.3669905663 -17.241788864 0.41303867102
          12.664126396 -20.040784836 -0.27206718922 -0.07082118094 -0.85380756855 0.04264773801
          -0.44976142049 -9.7811546326 -0.091570712626 -0.84888422489 -11.948231697 -0.12986330688
          -0.14922600985 -3.0351548195 -0.14609605074 4.0296888351 -16.944726944 -0.31487360597
          -0.14008541405 -4.4421896935 -0.082627661526 0.76415193081 -13.150032997 0.32143202424
          -0.13105711341 -5.9790048599 0.15469707549 5.1666331291 -17.066438675 0.17845994234
          0.0672243312 -13.421189308 -0.10903780162 -0.13234139979 -6.0171470642 0.083289980888
          3.9355118275 -16.858659744 -0.14215122163 10.388471603 -19.738540649 -0.48335576057
          14.94990921 -20.342767715 -3.3418273233e-05 -0.14717464149 -1.7416417599 0.16163045168
          0 0 0 10.383685112 -19.783067703 -0.24055618048
          -0.11287822574 -1.7684166431 0.083364196122 12.664108276 -20.055854797 -2.9142824133e-05
          1.2354573011 -15.061209679 -0.36086541414 -0.29071787 -11.634714127 9.4346396509e-06
          0.035736206919 -13.435623169 3.3651974718e-06 -0.31901657581 -9.7842254639 0.067531518638
          -0.067025452852 -0.85878872871 2.1202808398e-07 1.1282379627 -14.996578217 -0.15034155548
          3.7403731346 -16.711894989 -5.3267121984e-06 -0.29682603478 -9.8400697708 0.037730459124
          -0.13987722993 -6.0300917625 4.7511821322e-06 2.3284971714 -15.010260582 0.34085583687
          10.379725456 -19.79598999 -2.474746907e-05 -0.24084317684 -7.8706417084 -0.10603580624
          -0.10341984779 -1.7764120102 7.4857223353e-07 8.08822155 -19.501409531 -0.42024710774
          14.950210571 -20.327466965 0.30295461416 0.98038095236 -14.892019272 1.7261081666e-06
          -0.12557853758 -2.8275814056 0.20574337244 -0.14412474632 -4.4023423195 -0.15480209887
          -0.25268879533 -9.8254919052 7.5614020716e-06 5.1457366943 -17.013483047 0.33723586798
          0 0 0 8.0885353088 -19.549785614 -0.20269714296
          -0.10884733498 -2.8638420105 0.10975219309 12.664118767 -20.040792465 0.27200892568
          -0.84888964891 -11.948246002 0.12987746298 0.067225560546 -13.421195984 0.10904721916
          -0.070820741355 -0.85380738974 -0.042647209018 3.9355092049 -16.858663559 0.14214043319
          -0.1323402524 -6.017147541 -0.08328050375 10.383676529 -19.78307724 0.24050663412
          8.0904588699 -19.56294632 -2.0212837626e-05 2.7778072357 -16.863250732 -0.35659393668
          -0.10127016902 -7.7632780075 0.16521243751 -0.10870725662 -2.8701887131 1.3862669448e-06
          -0.11287736148 -1.7684164047 -0.083362527192 -0.10660386086 -7.7973027229 0.084109999239
          1.1282379627 -14.996584892 0.15034493804 2.737487793 -16.823265076 -0.16610404849
          -0.29682698846 -9.8400745392 -0.037716172636 5.7548079491 -19.253814697 -0.33549663424