<?xml version="1.0"?>
<VTKFile type="UnstructuredGrid" version="0.1" byte_order="LittleEndian" header_type="UInt32" compressor="vtkZLibDataCompressor">
  <UnstructuredGrid>
    <Piece NumberOfPoints="6405" NumberOfCells="4800">
      <PointData>
        <DataArray type="Float32" Name="DISPLACEMENT" NumberOfComponents="3" ComponentName0="X-DISPLACEMENT" ComponentName1="Y-DISPLACEMENT" ComponentName2="Z-DISPLACEMENT" format="ascii" RangeMin="0" RangeMax="281.80411003">
          0 0 0 0 0 0
          2.1455013752 -1.3175822496 -0.9907028079 0 0 0
          1.3669160604 -0.78202015162 -0.75785523653 0 0 0
          1.9617226124 -1.4578063488 -0.39332821965 1.1895273924 -0.89733332396 -0.30854469538
          0 0 0 3.8473711014 -2.4434993267 -1.0124647617
          0 0 0 3.7949953079 -2.6079072952 -0.52208304405
          2.7439315319 -2.01689744 -0.83566021919 0 0 0
          0 0 0 1.9693728685 -1.5043540001 -5.2234884151e-07
          0.98168516159 -0.53652137518 -0.56797474623 1.1850568056 -0.91925787926 -2.3286378337e-07
          2.6879878044 -2.1481807232 -0.42625388503 0.84642362595 -0.63767665625 -0.23140613735
          3.7530984879 -2.6540341377 -1.1202756696e-06 1.9471310377 -1.6753042936 -0.64841115475
          0 0 0 2.652153492 -2.1911911964 -5.8542252646e-07
          1.8882815838 -1.7967807055 -0.3324303925 0 0 0
          5.3880281448 -3.8961310387 -0.94525265694 0 0 0
          0.84231483936 -0.65534067154 8.8377042573e-08 0 0 0
          0 0 0 1.9617227316 -1.4578068256 0.39332720637
          4.034640789 -3.4847383499 -0.79383963346 5.4062852859 -4.0160069466 -0.48170289397
          0.58563500643 -0.35613667965 -0.39339575171 1.189527154 -0.8973338604 0.30854421854
          4.049715519 -3.5986881256 -0.40453654528 0.47638502717 -0.45612752438 -0.17024742067
          1.8565013409 -1.8325048685 -4.9735415786e-10 3.7949953079 -2.6079082489 0.52208077908
          0 0 0 0 0 0
          1.2785054445 -1.4645047188 -0.46797782183 2.9528868198 -3.1500740051 -0.64140552282
          5.3927307129 -4.0591459274 -1.8243063096e-06 2.6879873276 -2.1481816769 0.42625269294
          2.9457650185 -3.260692358 -0.32597669959 0.84642344713 -0.6376773119 0.23140627146
          4.0404233932 -3.6364028454 -1.0485368875e-06 1.2313199043 -1.5849707127 -0.23429074883
          0.46639719605 -0.4704336822 5.168275834e-07 0 0 0
          6.8089346886 -5.5494084358 -0.84116727114 0 0 0
          5.2568964958 -5.1762123108 -0.73042780161 1.8882811069 -1.7967818975 0.3324303627
          6.8477635384 -5.6355848312 -0.42584449053 2.1455011368 -1.3175832033 0.99070173502
          0 0 0 0 0 0
          1.2069922686 -1.6184518337 7.102038353e-07 2.9335963726 -3.2930867672 -2.3868398102e-07
          0.38401260972 -0.40947467089 -0.24842941761 5.2903156281 -5.262488842 -0.36822539568
          1.3669155836 -0.7820212841 0.75785464048 1.9930920601 -2.8998031616 -0.46750617027
          0 0 0 5.4062848091 -4.0160083771 0.48169922829
          0.37891557813 -0.52577787638 -0.1184567064 1.9602478743 -3.0124940872 -0.23774388433
          4.0497145653 -3.5986897945 0.40453442931 0.47638452053 -0.45612826943 0.17024838924
          3.9454593658 -4.8756756783 -0.61633872986 0.54080617428 -1.3692958355 -0.21350564063
          6.8480806351 -5.6658682823 -2.5954909688e-06 3.8473703861 -2.4435014725 1.0124623775
          0 0 0 0 0 0
          3.9546387196 -4.9602603912 -0.30931994319 2.7439305782 -2.0168998241 0.83565890789
          5.2949590683 -5.2920632362 -1.6093988506e-06 0.50684559345 -1.5126030445 -0.12224131078
          0.98168492317 -0.53652274609 0.56797480583 0.37019360065 -0.55945324898 1.3865471828e-06
          1.9428888559 -3.0404531956 6.4903434804e-07 2.9457643032 -3.2606940269 0.32597622275
          1.2313191891 -1.584972024 0.23429214954 3.9549589157 -4.9867472649 -6.0552741843e-07
          1.9471303225 -1.675306797 0.64841109514 0.48976135254 -1.5452209711 1.5647949567e-06
          2.7259523869 -4.6711597443 -0.49851506948 6.8477630615 -5.6355867386 0.42583927512
          5.3880271912 -3.8961341381 0.94524884224 0 0 0
          8.0986757278 -7.3459963799 -0.75613307953 0 0 0
          0 0 0 0.79696792364 -2.7433285713 -0.28201416135
          2.6971874237 -4.7416453362 -0.25203129649 8.1349334717 -7.406981945 -0.38046902418
          6.3937029839 -7.0093522072 -0.67732268572 5.2903146744 -5.2624907494 0.36822211742
          -0.14479067922 -0.27656504512 0.087329857051 0 0 0
          4.0346393585 -3.4847416878 0.79383742809 0.58563446999 -0.35613822937 0.39339658618
          0.74497377872 -2.8610703945 -0.15331807733 0.37891468406 -0.52577871084 0.11845938861
          -0.19518126547 -0.43519613147 0.022294895723 1.960247159 -3.0124959946 0.23774518073
          6.4258751869 -7.0727729797 -0.33891275525 3.9546377659 -4.9602622986 0.30931869149
          2.6866734028 -4.7604856491 4.6042472945e-07 8.1406707764 -7.429066658 -3.424751867e-06
          0.11972684413 -1.6462244987 -0.24653066695 0.50684463978 -1.512604475 0.12224444747
          0 0 0 4.8799715042 -6.7541351318 -0.59848558903
          1.2785044909 -1.4645075798 0.46797922254 2.9528856277 -3.1500775814 0.64140498638
          0.7331610918 -2.8902642727 1.6041174149e-06 6.4343419075 -7.0950374603 -2.257143251e-06
          -0.20158858597 -0.45565751195 6.2627015041e-07 0.0052518434823 -1.6653193235 -0.058154817671
          4.8943829536 -6.8143348694 -0.29886618257 6.8089327812 -5.5494127274 0.84116190672
          0 0 0 1.3089351654 -4.5199642181 -0.42191466689
          5.2568945885 -5.1762166023 0.73042446375 0.048238568008 -1.7037178278 2.7735468393e-06
          1.2478485107 -4.577609539 -0.20112292469 4.8982543945 -6.8351073265 -1.0824952597e-06
          0.38401171565 -0.40947681665 0.24843202531 2.69718647 -4.7416472435 0.25203222036
          3.4609391689 -6.6020612717 -0.52815926075 8.134932518 -7.4069843292 0.38046213984
          0.3468092382 -2.9985678196 -0.41913536191 1.9930909872 -2.8998069763 0.46750745177
          0 0 0 0.74497282505 -2.8610723019 0.15332129598
          3.4594395161 -6.6462011337 -0.26515641809 -0.19518142939 -0.43519690633 -0.022293653339
          0.30343276262 -3.0022113323 -0.12700310349 6.4258742332 -7.0727753639 0.3389081955
          3.9454576969 -4.8756799698 0.61633741856 0.54080486298 -1.3692989349 0.21350878477
          9.2802505493 -9.2226467133 -0.6990519762 0 0 0
          1.2264575958 -4.5975322723 1.6159153802e-06 7.4516434669 -8.9108543396 -0.63667410612
          9.3075313568 -9.2712373734 -0.35087022185 0 0 0
          0.089211925864 -0.74183177948 -0.16652025282 7.4773726463 -8.9619836807 -0.3175316155
          3.465511322 -6.6645169258 1.4642439794e-07 0.045706287026 -0.75126332045 -0.034449692816
          0.0052504409105 -1.6653207541 0.058160211891 0.35650646687 -3.0850000381 3.097570243e-06
          4.8943815231 -6.8143372536 0.298864007 5.7544121742 -8.681312561 -0.57324105501
          0.017318546772 -1.8305840492 -0.1677300036 9.3146858215 -9.2889051437 -4.3127938625e-06
          0 0 0 -0.0053156088106 -1.8594468832 -0.12097017467
          5.7752327919 -8.7292947769 -0.28640198708 7.4850707054 -8.9800100327 -2.9846314646e-06
          0.043191641569 -0.77670973539 0.00014228954387 2.7259509563 -4.6711640358 0.49851596355
          2.0669095516 -6.4779663086 -0.5200805068 8.0986738205 -7.3460011482 0.75612610579
          0 0 0 0.74217027426 -4.728849411 -0.44686177373
          1.2478475571 -4.5776119232 0.20112615824 0.79696649313 -2.7433326244 0.2820174098
          6.3937005997 -7.0093569756 0.67731803656 -0.14479011297 -0.27656558156 -0.087329082191
          0.72296261787 -4.7701439857 -0.19280388951 2.0018882751 -6.4829044342 -0.24790744483
          3.4594385624 -6.6462039948 0.26515668631 0.30343139172 -3.0022134781 0.12700901926
          5.781329155 -8.7467679977 -1.6536738485e-06 0.010640305467 -1.8623813391 0.00036898351391
          4.1757278442 -8.5485858917 -0.52558350563 -0.079453788698 -3.3084836006 -0.36801803112
          0.11972577125 -1.6462279558 0.24653619528 9.3075294495 -9.2712392807 0.35086157918
          4.8799695969 -6.7541399002 0.59848338366 0 0 0
          1.9350113869 -6.4695482254 1.4892318632e-06 0.71276980639 -4.8328232765 3.2237587675e-06
          4.1889753342 -8.5928592682 -0.26474541426 7.4773716927 -8.9619865417 0.31752559543
          -0.10251092166 -3.3087882996 -0.16762652993 0.045474160463 -0.75128746033 0.034611191601
          1.3089334965 -4.5199689865 0.42191788554 4.1883301735 -8.61536026 -2.9189871498e-07
          5.7752313614 -8.7292976379 0.28639864922 -0.0064866598696 -1.8595955372 0.1214222908
          0.11855506897 -3.2632806301 -7.1132075391e-05 10.398409843 -11.153345108 -0.66940462589
          0 0 0 10.415975571 -11.201031685 -0.33504626155
          3.4609372616 -6.6020669937 0.52815949917 8.4577302933 -10.848901749 -0.60634285212
          0.3468080759 -2.9985728264 0.41914135218 0.99549531937 -6.4446382523 -0.44281467795
          0.058932427317 -0.92420428991 -0.099136680365 0.72296106815 -4.7701463699 0.19281023741
          2.0018873215 -6.4829068184 0.24791043997 0 0 0
          8.4764537811 -10.898992538 -0.30209827423 0.99784845114 -6.4249238968 -0.26579713821
          0.02741186507 -0.94697099924 -0.047828961164 2.7885525227 -8.4624137878 -0.49357649684
          0.095613926649 -5.0448923111 -0.47749635577 9.2802476883 -9.2226514816 0.69904321432
          0 0 0 7.4516406059 -8.910859108 0.63666802645
          10.422688484 -11.217754364 -5.2787904679e-06 0.082454182208 -5.0320944786 -0.24638064206
          2.8133442402 -8.518995285 -0.25645270944 0.088873900473 -0.74189972878 0.16655674577
          6.5846762657 -10.617008209 -0.54007911682 0.042245376855 -2.0749268532 -0.15603433549
          0 0 0 4.1889743805 -8.5928621292 0.26474481821
          -0.10586648434 -3.3086326122 0.16763299704 8.482670784 -10.915911674 -3.7972451992e-06
          0.94505220652 -6.3399133682 2.9679229101e-06 6.6056313515 -10.665582657 -0.26844140887
          0.016430854797 -2.1094279289 -0.077177293599 0.027806067839 -0.94825339317 0.00013485121599
          5.75440979 -8.6813182831 0.57323765755 0.0161315687 -1.830684185 0.16724056005
          2.818062067 -8.554901123 1.1675554106e-06 0.11325898767 -5.0547618866 4.4302601054e-06
          2.0669076443 -6.4779720306 0.52008354664 6.6100955009 -10.680945396 -2.3122652237e-06
          0.020728737116 -2.1056573391 0.00015945958148 0.74216800928 -4.7288541794 0.44686815143
          10.415974617 -11.201034546 0.33503565192 4.8407039642 -10.498586655 -0.47385361791
          0 0 0 0.041587159038 -3.462428093 -0.17196883261
          4.8638825417 -10.538901329 -0.23583616316 8.4764518738 -10.898996353 0.30209061503
          0.027197299525 -0.94707673788 0.048031035811 0.99784719944 -6.4249267578 0.26580321789
          0.028841251507 -3.5244247913 -0.10783815384 4.1757254601 -8.5485916138 0.52558290958
          1.3495519161 -8.3673372269 -0.4064578414 2.8133432865 -8.5189981461 0.25645509362
          -0.082086779177 -3.3090846539 0.37010625005 0.082428619266 -5.0320725441 0.24638903141
          0.34980335832 -6.7823638916 -0.56834518909 1.4635727406 -8.469865799 -0.21743443608
          4.8645715714 -10.550795555 -8.1775004901e-07 6.605629921 -10.665585518 0.26843672991
          0.015987092629 -2.109723568 0.077439710498 0.37760823965 -6.7320179939 -0.267752707
          -0.0036858709063 -3.5236670971 8.7536471256e-05 11.49713707 -13.153170586 -0.66020405293
          0 0 0 0.035355497152 -1.0179964304 -0.056442461908
          1.6000115871 -8.565659523 2.7489024887e-06 3.3217756748 -10.488443375 -0.41979065537
          9.4398145676 -12.844982147 -0.58698582649 10.398406982 -11.15335083 0.66939389706
          0 0 0 0 0 0
          0.41150847077 -6.7197332382 4.5769456847e-06 0.073764249682 -5.0578985214 -0.19112673402
          11.506419182 -13.206717491 -0.32946103811 3.3514299393 -10.510781288 -0.21089349687
          9.450758934 -12.900637627 -0.29227903485 8.4577264786 -10.848907471 0.60633510351
          0.01724809967 -1.0452173948 -0.023941429332 0.99549335241 -6.4446444511 0.44282087684
          0.058691002429 -0.9243670702 0.099180229008 0.063062757254 -5.1432542801 -0.11417318881
          4.8638811111 -10.53890419 0.23583450913 0.028738489375 -3.5245001316 0.10816981643
          7.4017243385 -12.592920303 -0.50789070129 2.7885506153 -8.4624204636 0.49357891083
          0.095563687384 -5.0448479652 0.47750487924 0 0 0
          0.032901186496 -2.201079607 -0.076395086944 11.511627197 -13.224569321 -6.3618999775e-06
          0.016674263403 -1.0500346422 7.9874553194e-05 3.358546257 -10.517980576 6.664501484e-07
          7.4188432693 -12.646827698 -0.25121110678 6.5846729279 -10.617014885 0.54007434845
          9.4549283981 -12.918510437 -4.7186026677e-06 0.041691012681 -2.0752818584 0.15629947186
          0.060707449913 -5.1616158485 -2.6020641599e-05 0.018603872508 -2.243540287 -0.041386801749
          1.4635717869 -8.46986866 0.21743999422 0.37760722637 -6.7320208549 0.26776203513
          0.7056043148 -8.7152376175 -0.51144373417 7.4234471321 -12.661585808 -3.0537544262e-06
          0.010916905478 -2.2546794415 0.00010846879741 0.70726805925 -8.7024011612 -0.20049980283
          5.4136915207 -12.454533577 -0.42666751146 0 0 0
          0.0272075627 -3.5800580978 -0.083936750889 11.506417274 -13.206720352 0.32944825292
          0.017181789503 -1.0453188419 0.024076379836 3.3514287472 -10.510785103 0.21089486778
          5.4295344353 -12.493868828 -0.20987024903 4.8407011032 -10.49859333 0.47385188937
          9.4507570267 -12.900641441 0.29226955771 1.8906484842 -10.499243736 -0.43169653416
          0.097338914871 -6.8160171509 -0.17390054464 0.04118816182 -3.4624359608 0.17199037969
          0.016331179067 -3.6382186413 -0.041521992534 0.062635719776 -5.142935276 0.11423320323
          1.9347281456 -10.509770393 -0.1894517839 0.05798028782 -6.9226822853 -0.15185749531
          0.67918103933 -8.7236471176 4.214945875e-06 1.3495500088 -8.3673439026 0.40646356344
          7.418841362 -12.646830559 0.2512049377 0.34980145097 -6.7823700905 0.56835484505
          5.4265546799 -12.500473022 -1.4206664218e-06 0.018546747044 -2.2436356544 0.041584540159
          0.013844634406 -3.6571619511 8.1826256064e-05 1.9693174362 -10.51668644 2.2782055566e-06
          0.072664439678 -6.9193825722 -1.8184326109e-05 0.033288575709 -5.1639375687 -0.078741021454
          3.7369847298 -12.508023262 -0.37487474084 11.497133255 -13.153177261 0.66019111872
          0 0 0 0.7072674036 -8.7024049759 0.20050853491
          0.035291220993 -1.0181304216 0.056527588516 0.021136058494 -5.2387084961 -0.040818173438
          3.3217735291 -10.48845005 0.41979211569 9.4398097992 -12.844988823 0.58697617054
          3.7567806244 -12.520684242 -0.18331465125 12.600169182 -15.259192467 -0.66148024797
          0 0 0 0.073212109506 -5.0575971603 0.19138269126
          12.603405952 -15.319063187 -0.32963097095 0.0065106912516 -1.0599031448 -0.013962755911
          10.415995598 -14.945559502 -0.57916206121 5.4295325279 -12.493871689 0.20986737311
          0 0 0 0.016227919608 -3.6382231712 0.041639916599
          10.420260429 -15.006889343 -0.28852730989 0.0019313471857 -1.0862393379 -0.0061573148705
          1.9347276688 -10.509774208 0.18945643306 0.05787633732 -6.9226708412 0.15184335411
          7.4017205238 -12.592927933 0.5078843236 0.015472140163 -5.2622842789 1.7907106667e-05
          3.7550177574 -12.526324272 1.3863885329e-07 0.032825179398 -2.2011978626 0.076507516205
          1.0295783281 -10.691080093 -0.42746317387 0.0016477487516 -2.2603962421 -0.018157081679
          8.2261590958 -14.67381382 -0.49065250158 -0.15708807111 -9.0447826385 -0.48445662856
          12.60636425 -15.338586807 -7.6215387708e-06 0 0 0
          1.0508476496 -10.699321747 -0.20875160396 10.422627449 -15.026317596 -5.7930010371e-06
          0.0013162444811 -1.0932239294 4.656530291e-05 8.234462738 -14.735721588 -0.24298392236
          -0.00069709203672 -2.2998175621 -0.008694565855 -0.11095359921 -9.0078401566 -0.26205503941
          0.70560264587 -8.7152442932 0.51145279408 1.0533868074 -10.705562592 3.8784296521e-06
          0.027997918427 -6.9906301498 -0.1084811911 0.021081184968 -5.2386336327 0.040875498205
          2.4854505062 -12.585325241 -0.39753016829 8.2380590439 -14.753305435 -3.9130450205e-06
          5.413687706 -12.454540253 0.42666450143 3.7567794323 -12.520688057 0.18331494927
          -0.02961044386 -9.0015439987 -3.2508064578e-06 -0.0018997211009 -2.3128194809 6.0947779275e-05
          0.027084067464 -3.5800180435 0.084096953273 12.603404045 -15.319067001 0.32961565256
          6.00882864 -14.462406158 -0.39483073354 0.021800212562 -7.0674524307 -0.050604887307
          -0.00051122385776 -3.6372184753 -0.014322729781 2.4991309643 -12.577449799 -0.18700352311
          1.8906470537 -10.499250412 0.43170139194 0.097152218223 -6.8159866333 0.17395205796
          0 0 0 -0.00027865025913 -3.6863229275 -0.006694083102
          10.420257568 -15.006893158 0.28851565719 0.0019219649257 -1.0862821341 0.0062378104776
          6.0199456215 -14.513811111 -0.1947478056 0.019497001544 -7.0923743248 -2.7879675599e-06
          2.4985675812 -12.576283455 1.7774992784e-06 1.0508474112 -10.699325562 0.20875947177
          6.0202856064 -14.52357769 -2.0587376639e-06 -0.0021886709146 -3.7034680843 4.4706503104e-05
          8.234459877 -14.735724449 0.24297600985 -0.00071220780956 -2.2998526096 0.0088056055829
          -0.11095256358 -9.0078439713 0.26206693053 0.033161785454 -5.1637859344 0.078831285238
          3.7369823456 -12.508030891 0.37487509847 4.0412201881 -14.402619362 -0.32133376598
          12.600164413 -15.259199142 0.66146475077 0 0 0
          0.0080497944728 -5.2168169022 -0.0096105178818 0.006515652407 -1.0599519014 0.014015360735
          10.415990829 -14.945566177 0.57915019989 0.021705064923 -7.0673708916 0.05061577633
          2.4991304874 -12.577453613 0.18700714409 4.0439729691 -14.402323723 -0.16543900967
          0.1053308025 -10.839410782 -0.45808196068 0.0097203794867 -5.2723722458 -0.0024581588805
          -0.00028738038964 -3.6863176823 0.0067897872068 6.0199432373 -14.513814926 0.19474360347
          0.19676692784 -10.899980545 -0.21447050571 1.3498541117 -12.585337639 -0.39894285798
          0.13285781443 -8.9575958252 -0.10048398376 13.710366249 -17.501213074 -0.66489732265
          0 0 0 11.392140388 -17.186113358 -0.57931369543
          1.0295770168 -10.691086769 0.42747110128 0.0016394314589 -2.260425806 0.018250418827
          8.2261552811 -14.673821449 0.49064433575 0.1035393402 -9.0603170395 -0.081355504692
          1.3427637815 -12.574463844 -0.18997883797 -0.15708860755 -9.0447902679 0.48446911573
          13.710492134 -17.564102173 -0.33148702979 0 0 0
          0.0086320433766 -5.293885231 2.2227419322e-05 4.0229158401 -14.395991325 -3.4586736319e-07
          -0.023391632363 -1.0625536442 0.021790884435 11.392116547 -17.249650955 -0.28916341066
          -0.015607486479 -1.0876019001 0.0088431918994 0.30184486508 -11.003741264 4.0860441004e-06
          9.064245224 -16.905540466 -0.49151113629 0.095442995429 -9.0626382828 -4.4509915824e-06
          1.3270115852 -12.568095207 3.3912476738e-06 13.7114048 -17.584617615 -9.1299934866e-06
          0 0 0 -0.031852710992 -2.2555608749 0.032190654427
          9.0640192032 -16.971094131 -0.24421352148 11.39294529 -17.270313263 -7.0839100772e-06
          0.027851780877 -6.9905185699 0.10851752013 2.4854495525 -12.58533287 0.39753389359
          -0.014743964188 -1.0948473215 2.3716625947e-05 -0.024194693193 -2.2924983501 0.016017328948
          6.0088238716 -14.462413788 0.39482626319 -0.00053428829415 -3.6371936798 0.014401897788
          0.046607010067 -6.9984679222 0.0026709600352 2.9087238312 -14.492051125 -0.37894234061
          0.0096920821816 -5.272333622 0.002503948519 4.0439715385 -14.402328491 0.16543829441
          0.042882304639 -7.0656900406 0.0024605384097 2.9076557159 -14.473790169 -0.17162668705
          0.19676864147 -10.899986267 0.21448098123 9.0655431747 -16.991390228 -4.9530976867e-06
          -0.021557737142 -2.3054537773 3.3782234823e-05 6.7053928375 -16.650724411 -0.39340254664
          0.10350248218 -9.0603046417 0.081349223852 1.3427639008 -12.574467659 0.1899857223
          13.710489273 -17.564105988 0.33146870136 0 0 0
          -0.025734070688 -3.6175293922 0.041744887829 6.7083268166 -16.717624664 -0.19529299438
          11.392113686 -17.249656677 0.28914916515 -0.018785057589 -3.6616511345 0.020933318883
          0.037656791508 -7.0883312225 3.6758974602e-06 2.8946249485 -14.467294693 1.331659405e-06
          -0.015609664842 -1.087616086 -0.0088007999584 9.0640163422 -16.971097946 0.2442035079
          6.7121500969 -16.73674202 -2.7807675451e-06 -0.016636652872 -3.6780574322 2.9960167012e-05
          4.041217804 -14.402627945 0.32133296132 0.57756179571 -12.807749748 -0.42781531811
          -0.024192882702 -2.2925078869 -0.015952438116 0.0079990979284 -5.2167458534 0.0096671162173
          0.21634718776 -10.889933586 -0.24286019802 0.5821378231 -12.803839684 -0.18430691957
          0.10533059388 -10.839416504 0.4580925107 0.17139023542 -11.013149261 -0.078357473016
          0.042856391519 -7.0656495094 -0.0024468388874 2.9076554775 -14.473794937 0.17162948847
          1.349853754 -12.585345268 0.39895012975 0.13279622793 -8.9575738907 0.10050436109
          -0.0061997179873 -5.1724243164 0.052057418972 4.4060707092 -16.432386398 -0.28891628981
          13.710361481 -17.501220703 0.66487872601 0 0 0
          11.392134666 -17.186120987 0.5792992115 0.0010364819318 -5.2218365669 0.026483409107
          0.55714517832 -12.803563118 4.6225686674e-06 0.072490923107 -8.9802055359 0.013674152084
          1.8800965548 -14.570706367 -0.39535278082 4.4094991684 -16.464967728 -0.14895044267
          -0.023381955922 -1.0625638962 -0.02175623551 0.13499997556 -11.037653923 -5.9580224843e-06
          6.7083239555 -16.717628479 0.19528728724 -0.01878609322 -3.6616449356 -0.020876169205
          1.8402752876 -14.540638924 -0.18021050096 0.057161726058 -9.0568847656 0.018835905939
          9.064239502 -16.905550003 0.49150085449 0.0028961093631 -5.2405033112 1.7509421014e-05
          4.3959178925 -16.472002029 -6.931498433e-07 -0.031844895333 -2.2555603981 -0.032135251909
          1.7920644283 -14.509289742 3.1038002817e-06 14.82110405 -19.888938904 -0.66576159
          0 0 0 0.032634049654 -9.0860490799 1.2783765158e-07
          14.820449829 -19.951169968 -0.33246254921 0 0 0
          0.58213824034 -12.803843498 0.18431656063 12.367628098 -19.575256348 -0.58231788874
          0.046554911882 -6.9984016418 -0.0026401176583 2.9087231159 -14.492059708 0.37894549966
          -0.051625240594 -1.0289105177 0.056435316801 0.17140346766 -11.013155937 0.07837421447
          12.366297722 -19.637643814 -0.29116633534 -0.031342960894 -1.0546146631 0.023601459339
          6.7053875923 -16.65073204 0.39339640737 14.820036888 -19.971693039 -1.0956548977e-05
          0.0010318236891 -5.2218165398 -0.026446620002 9.9125957489 -19.295873642 -0.50007379055
          -0.061473514885 -2.1867127419 0.081358991563 4.4094967842 -16.464971542 0.14894890785
          0 0 0 3.4201545715 -16.456695557 -0.35374683142
          0.031034693122 -6.9293317795 0.064773336053 -0.02573842369 -3.6175069809 -0.041688535362
          -0.044093046337 -2.2262606621 0.040286350995 9.9085321426 -19.359725952 -0.24954232574
          12.366207123 -19.658582687 -8.6582067524e-06 1.8402763605 -14.540642738 0.18021684885
          0.037118211389 -6.9848842621 0.035578031093 3.3662037849 -16.402368546 -0.16210125387
          0.057139672339 -9.0568599701 -0.018831061199 -0.028810983524 -1.0618209839 1.1860505765e-05
          0.18711709976 -13.999619484 -0.10265295953 9.9084672928 -19.380937576 -6.2428025558e-06
          0.57756412029 -12.807757378 0.4278254807 -0.038302563131 -2.239356041 1.8615550289e-05
          0.037188857794 -7.0095076561 7.855763215e-06 0.093572579324 -14.083520889 -0.17111003399
          3.2935855389 -16.355113983 1.2911033309e-06 0.21633598208 -10.889943123 0.24287554622
          14.820446968 -19.951173782 0.3324405551 7.4367790222 -19.043348312 -0.41226303577
          -0.10950115323 -11.280114174 0.086345881224 0 0 0
          -0.04629182443 -3.5128452778 0.09679415822 0.89862900972 -14.63921833 -0.34889861941
          -0.033412583172 -3.5618538857 0.046851087362 7.4302368164 -19.111732483 -0.20386143029
          12.366293907 -19.637649536 0.29114890099 -0.16632339358 -11.362325668 0.023849204183
          0.8452835083 -14.619957924 -0.17151084542 -0.031342335045 -1.0546172857 -0.023579476401
          -0.0062147635035 -5.1723875999 -0.052016939968 4.4060668945 -16.432394028 0.28891423345
          0.070942737162 -14.074952126 7.8247947386e-05 0.07245631516 -8.9801712036 -0.01365591865
          1.8800979853 -14.570714951 0.39535951614 7.4298810959 -19.133405685 -3.7572326619e-06
          9.9085283279 -19.359731674 0.24952973425 -0.20369802415 -11.353616714 -1.7560978449e-06
          -0.044090725482 -2.2262609005 -0.040250238031 -0.026232754812 -3.5808544159 1.8169494069e-05
          0.037107672542 -6.9848608971 -0.035559818149 3.3662042618 -16.40237236 0.16210395098
          0.78360825777 -14.578841209 4.8488809625e-06 2.3375577927 -16.420963287 -0.37929493189
          0.11114038527 -8.9349107742 0.075852379203 2.2891461849 -16.385242462 -0.17852132022
          0.09879758954 -8.9984169006 0.051867425442 14.821097374 -19.888948441 0.66573929787
          0 0 0 0.093571513891 -14.08354187 0.17109465599
          -0.010708079673 -5.0461149216 0.10832603276 4.9503073692 -18.766719818 -0.28501176834
          -0.0011001857929 -5.0970983505 0.051221068949 12.367620468 -19.575265884 0.58230018616
          -0.05161678791 -1.0289077759 -0.056415129453 4.9350557327 -18.852041245 -0.15044528246
          7.4302330017 -19.111738205 0.20385377109 -0.16631442308 -11.362321854 -0.02383187227
          -0.033410303295 -3.5618476868 -0.046814639121 0.84528529644 -14.619962692 0.17152069509
          2.239117384 -16.348497391 3.3132405406e-06 0.082964964211 -9.0250492096 4.3417189772e-06
          9.9125881195 -19.295883179 0.50006085634 -0.061465702951 -2.1867036819 -0.081325337291
          3.4201552868 -16.456705093 0.35374981165 0.002164601814 -5.1200799942 1.3513077647e-05
          0.031014312059 -6.9292945862 -0.064747877419 4.9221229553 -18.889045715 -1.1850887631e-06
          15.925873756 -22.416305542 -0.66360086203 0 0 0
          0.18712748587 -13.999664307 0.10264267027 2.289147377 -16.385246277 0.17852807045
          0 0 0 13.342432976 -22.105102539 -0.58423793316
          -0.67375075817 -14.012506485 -0.10389637202 0.098790079355 -8.9983997345 -0.051854554564
          -0.071347355843 -0.95770508051 0.096057236195 0.17029392719 -14.877366066 -0.36598208547
          15.925818443 -22.475996017 -0.33177658916 7.4367723465 -19.043357849 0.41225495934
          13.341296196 -22.164604187 -0.29248940945 -0.038760516793 -0.98249036074 0.041325684637
          -0.10950581729 -11.280111313 -0.086322799325 -0.72663378716 -14.063188553 -0.065591193736
          -0.046289630234 -3.5128283501 -0.096758745611 3.8355476856 -18.32673645 -0.35415789485
          -0.0011007656576 -5.0970869064 -0.051193378866 0.89863187075 -14.639226913 0.3489087522
          0.010814904235 -6.7844805717 0.12274812907 4.935051918 -18.852046967 0.15044264495
          0.16358816624 -14.894129753 -0.12713120878 0.028263824061 -6.8390817642 0.058172360063
          3.7738826275 -18.260240555 -0.17458066344 10.761475563 -21.828094482 -0.50746148825
          15.925122261 -22.49587059 -1.315890313e-05 -0.081119172275 -2.0541734695 0.14015741646
          0 0 0 10.758127213 -21.889652252 -0.2537547946
          -0.050997413695 -2.0969896317 0.073605805635 13.340589523 -22.184770584 -1.0578170077e-05
          1.2891501188 -16.441524506 -0.38463330269 -0.75700968504 -14.124821663 6.1908343923e-05
          0.10183151066 -14.85887146 5.7689430832e-06 0.30953124166 -11.369934082 0.077869325876
          -0.036284193397 -0.9866117835 5.9681829043e-06 1.1820876598 -16.409133911 -0.16697442532
          3.6731402874 -18.188898087 1.7606304255e-06 0.25044542551 -11.395804405 0.056359302253
          0.031967639923 -6.8618750572 8.8817287178e-06 2.3375597 -16.420970917 0.37930190563
          10.757541656 -21.911481857 -7.854739124e-06 0.11112641543 -8.9348859787 -0.075832247734
          -0.038848627359 -2.111243248 1.0257315807e-05 8.1741285324 -21.58338356 -0.42776098847
          15.925814629 -22.475999832 0.3317501843 1.0665407181 -16.361312866 5.1108891057e-06
          -0.053510263562 -3.3271319866 0.16058926284 -0.010712277144 -5.0460929871 -0.10829630494
          0.18537335098 -11.380548477 1.1027679648e-05 4.9503011703 -18.766729355 0.28500822186
          0 0 0 8.1645965576 -21.648370743 -0.21400763094
          -0.032336805016 -3.3907864094 0.083119168878 13.341291428 -22.164609909 0.29246816039
          -0.72660005093 -14.063207626 0.065614514053 0.16359144449 -14.894135475 0.12714338303
          -0.038759637624 -0.98248934746 -0.0413143076 3.7738831043 -18.26024437 0.17458425462
          0.028261102736 -6.8390684128 -0.05815321207 10.758122444 -21.889657974 0.25373896956
          8.1595916748 -21.671669006 -5.0252997426e-06 2.9329040051 -18.365535736 -0.42113941908
          0.072442248464 -8.6957817078 0.14222171903 -0.030546827242 -3.4088075161 1.138645257e-05
          -0.050995223224 -2.0969867706 -0.073585361242 0.08760535717 -8.774096489 0.077613227069
          1.182090044 -16.409137726 0.16698479652 2.8145678043 -18.301458359 -0.16418924928
          0.25044324994 -11.395799637 -0.056340176612 5.6118750572 -21.354133606 -0.33284837008