<?xml version="1.0"?>
<VTKFile type="UnstructuredGrid" version="0.1" byte_order="LittleEndian" header_type="UInt32" compressor="vtkZLibDataCompressor">
  <UnstructuredGrid>
    <Piece NumberOfPoints="6405" NumberOfCells="4800">
      <PointData>
        <DataArray type="Float32" Name="DISPLACEMENT" NumberOfComponents="3" ComponentName0="X-DISPLACEMENT" ComponentName1="Y-DISPLACEMENT" ComponentName2="Z-DISPLACEMENT" format="ascii" RangeMin="0" RangeMax="339.25900165">
          0 0 0 0 0 0
          2.6429901123 -1.5420291424 -1.2164173126 0 0 0
          1.5520256758 -0.87171489 -0.84011083841 0 0 0
          2.4294424057 -1.7635667324 -0.47967344522 1.350120306 -1.0637950897 -0.34168809652
          0 0 0 4.7937479019 -3.1522917747 -1.2385753393
          0 0 0 4.7336287498 -3.4080500603 -0.63157439232
          3.1314308643 -2.6291863918 -0.93066239357 0 0 0
          0 0 0 2.4436216354 -1.8288069963 4.9217252496e-08
          0.91648519039 -0.56411027908 -0.5077137351 1.342890501 -1.09831357 1.1979825132e-08
          3.0628905296 -2.8433060646 -0.4732003212 0.79248219728 -0.75636285543 -0.20810851455
          4.682723999 -3.4776344299 7.2206972845e-08 1.8007663488 -2.2508561611 -0.59637844563
          0 0 0 3.0213508606 -2.906799078 7.5205850436e-09
          1.7148075104 -2.4499690533 -0.30706107616 0 0 0
          6.6996059418 -5.3933949471 -1.136613369 0 0 0
          0.79084408283 -0.78627490997 -2.3012832528e-08 0 0 0
          0 0 0 2.4294424057 -1.7635667324 0.47967353463
          4.5861291885 -4.921102047 -0.89618492126 6.7217035294 -5.576710701 -0.57576984167
          0.050468094647 -0.46074816585 -0.12571370602 1.350120306 -1.0637949705 0.34168812633
          4.596944809 -5.0924444199 -0.45477852225 -0.045343179256 -0.68015158176 -0.078167200089
          1.6815774441 -2.503783226 -5.2857703992e-08 4.7336287498 -3.4080498219 0.63157457113
          0 0 0 0 0 0
          0.23507428169 -2.0709440708 -0.2926261127 2.7768096924 -4.6002645493 -0.66619890928
          6.7008166313 -5.638759613 7.9483221782e-08 3.0628905296 -2.8433060646 0.4732003212
          2.7342042923 -4.7522873878 -0.33831307292 0.79248219728 -0.75636279583 0.20810846984
          4.5844163895 -5.1460552216 -1.0213417667e-08 0.14041812718 -2.2643213272 -0.1609544456
          -0.059351693839 -0.72276502848 -6.2714349269e-08 0 0 0
          8.3861560822 -7.9838442802 -0.9855287075 0 0 0
          5.9523072243 -7.5677332878 -0.83190083504 1.7148075104 -2.4499690533 0.30706095695
          8.4342708588 -8.1032018661 -0.4984741509 2.6429901123 -1.5420290232 1.2164173126
          0 0 0 0 0 0
          0.12118069828 -2.3202214241 -1.123049671e-07 2.7189087868 -4.8002319336 -9.5043382942e-08
          -0.77009791136 -0.70000547171 -0.03599435091 5.9888248444 -7.6825141907 -0.41843783855
          1.5520256758 -0.87171477079 0.84011083841 0.78918510675 -4.3982777596 -0.4856724143
          0 0 0 6.7217035294 -5.576710701 0.57577002048
          -0.93092495203 -0.81647264957 -0.012027028017 0.72160041332 -4.5272254944 -0.24133630097
          4.596944809 -5.0924444199 0.45477849245 -0.045343164355 -0.68015152216 0.078167080879
          3.7886419296 -7.2726144791 -0.68749445677 -0.77273225784 -2.3384799957 -0.34267678857
          8.4299869537 -8.1439819336 6.9565643912e-08 4.7937479019 -3.1522915363 1.2385754585
          0 0 0 0 0 0
          3.7802724838 -7.3718214035 -0.34694889188 3.1314308643 -2.6291861534 0.93066239357
          5.9924654961 -7.7208189964 -4.0067494211e-08 -0.85642415285 -2.4090614319 -0.12286230922
          0.91648513079 -0.56411015987 0.5077136755 -0.94490545988 -0.88766098022 -1.187695915e-07
          0.70872247219 -4.5709323883 -1.8397453516e-07 2.7342040539 -4.7522873878 0.3383128643
          0.14041811228 -2.2643210888 0.16095420718 3.7760944366 -7.4067354202 -1.4651722324e-07
          1.8007662296 -2.2508559227 0.59637832642 -0.85777240992 -2.4816048145 -2.0403406609e-07
          1.6167137623 -7.0652823448 -0.5882589817 8.4342708588 -8.1032018661 0.49847429991
          6.6996059418 -5.3933944702 1.1366134882 0 0 0
          9.8695631027 -10.76402092 -0.86103665829 0 0 0
          0 0 0 -0.49764177203 -4.5226817131 -0.42653056979
          1.5824853182 -7.1434707642 -0.28994470835 9.9172954559 -10.836223602 -0.43314871192
          7.2301950455 -10.384469986 -0.7671995759 5.9888248444 -7.6825141907 0.41843774915
          -0.50679630041 -1.4359064102 0.17360845208 0 0 0
          4.5861291885 -4.921102047 0.89618486166 0.050468061119 -0.46074804664 0.12571358681
          -0.53955745697 -4.6013493538 -0.19872847199 -0.93092501163 -0.81647258997 0.01202678401
          -0.57232570648 -1.4700255394 0.014445945621 0.72160029411 -4.5272250175 0.24133591354
          7.2702202797 -10.456628799 -0.38366600871 3.7802722454 -7.3718209267 0.34694859385
          1.5725514889 -7.1732115746 -2.6117587026e-07 9.9214706421 -10.861724854 4.4582904479e-08
          -1.6732159853 -2.7262730598 -0.40061566234 -0.85642421246 -2.4090614319 0.12286189198
          0 0 0 4.820497036 -10.094656944 -0.67767941952
          0.23507419229 -2.0709438324 0.29262584448 2.7768096924 -4.6002645493 0.66619867086
          -0.54504674673 -4.6438918114 -3.0376065752e-07 7.2791762352 -10.480989456 -7.9132853159e-08
          -0.55249047279 -1.4828726053 -1.7885473369e-07 -1.8404449224 -2.6834893227 -0.088261820376
          4.8309931755 -10.156080246 -0.33942040801 8.3861560822 -7.9838438034 0.98552882671
          0 0 0 -0.11155374348 -6.9824514389 -0.48333370686
          5.9523072243 -7.567732811 0.83190071583 -1.7133020163 -2.7540893555 8.8726949343e-08
          -0.14382366836 -7.0494465828 -0.24999906123 4.8329482079 -10.177676201 -2.0149299473e-07
          -0.77009809017 -0.70000529289 0.035994067788 1.582485199 -7.1434702873 0.28994417191
          2.4990057945 -9.894569397 -0.61434823275 9.9172954559 -10.836223602 0.43314880133
          -1.3664054871 -4.9931864738 -0.59700918198 0.78918486834 -4.3982772827 0.48567199707
          0 0 0 -0.53955757618 -4.601348877 0.19872786105
          2.4870922565 -9.9377441406 -0.30687874556 -0.57232570648 -1.4700254202 -0.014446153305
          -1.4481438398 -4.9555215836 -0.26492491364 7.2702202797 -10.456628799 0.3836658597
          3.7886416912 -7.2726140022 0.68749415874 -0.77273249626 -2.3384797573 0.34267631173
          11.198507309 -13.634552002 -0.77144247293 0 0 0
          -0.13706764579 -7.0746078491 -3.8525053014e-07 8.4301338196 -13.281022072 -0.71236670017
          11.237502098 -13.679106712 -0.38652712107 0 0 0
          -0.11783070117 -1.8848570585 -0.048157967627 8.4647493362 -13.326724052 -0.35492482781
          2.482206583 -9.9550533295 -3.3117891007e-07 -0.19090026617 -1.8689318895 -0.011547316797
          -1.8404450417 -2.6834893227 0.088261030614 -1.4217817783 -4.992618084 -5.9828988697e-07
          4.8309931755 -10.156080246 0.33941999078 5.8423976898 -12.996902466 -0.65246498585
          -0.24139657617 -3.5298874378 -0.2709504962 11.244478226 -13.694763184 8.6095601759e-09
          0 0 0 -0.35143828392 -3.5482485294 -0.14281623065
          5.8597698212 -13.034058571 -0.32527327538 8.4742660522 -13.341673851 -1.2358050583e-07
          -0.20016384125 -1.8853207827 -1.6053957097e-07 1.6167135239 -7.065281868 0.58825844526
          0.49452736974 -9.8448514938 -0.59239417315 9.8695631027 -10.76402092 0.86103671789
          0 0 0 -0.96701520681 -7.5212554932 -0.7663602829
          -0.14382375777 -7.049446106 0.24999828637 -0.49764195085 -4.5226812363 0.42652997375
          7.2301945686 -10.384469986 0.76719945669 -0.50679665804 -1.435906291 -0.1736087501
          -1.0167380571 -7.4231815338 -0.32139217854 0.47604236007 -9.8622617722 -0.29575428367
          2.4870920181 -9.9377441406 0.3068780899 -1.4481444359 -4.9555211067 0.26492339373
          5.8644490242 -13.045973778 -2.5568508022e-07 -0.38441798091 -3.54129076 -4.5203228183e-07
          3.3519461155 -12.808224678 -0.61391788721 -0.53931629658 -5.5477600098 -0.49366924167
          -1.6732165813 -2.7262723446 0.40061464906 11.237502098 -13.679105759 0.38652712107
          4.820497036 -10.094656944 0.67767900229 0 0 0
          0.48855450749 -9.8799715042 -4.6826335165e-07 -0.99106246233 -7.4537520409 -4.9828872761e-07
          3.3541579247 -12.824865341 -0.30802536011 8.4647493362 -13.326724052 0.3549245894
          -0.65045773983 -5.5807971954 -0.24903582036 -0.19090034068 -1.8689318895 0.011546963826
          -0.11155397445 -6.9824509621 0.48333287239 3.3539421558 -12.833713531 -3.9481295744e-07
          5.8597698212 -13.034058571 0.32527276874 -0.35143843293 -3.5482485294 0.14281539619
          -0.68021303415 -5.5884475708 -6.6229273443e-07 12.419979095 -16.555606842 -0.71176356077
          0 0 0 12.44895649 -16.585874557 -0.35554692149
          2.4990055561 -9.894569397 0.6143475771 9.5637016296 -16.221164703 -0.67012864351
          -1.3664058447 -4.993185997 0.59700781107 -0.50142729282 -10.30517292 -0.81261360645
          0.077066347003 -2.0100882053 -0.086701594293 -1.0167386532 -7.4231805801 0.32139113545
          0.47604218125 -9.8622608185 0.29575332999 0 0 0
          9.5904464722 -16.252502441 -0.33322295547 -0.48633238673 -10.235282898 -0.37869790196
          0.016026565805 -2.0153536797 -0.038981184363 1.1696442366 -12.788994789 -0.64914745092
          -0.71069276333 -8.1926527023 -0.57875651121 11.198507309 -13.634551048 0.77144253254
          0 0 0 8.4301328659 -13.281022072 0.71236640215
          12.455990791 -16.59614563 -3.4756428846e-08 -0.81491047144 -8.2414646149 -0.36380174756
          1.1711933613 -12.77280426 -0.32194632292 -0.11783098429 -1.8848569393 0.048157550395
          6.8372888565 -15.943071365 -0.62556487322 0.034837201238 -3.9851055145 -0.22673931718
          0 0 0 3.3541576862 -12.824864388 0.30802458525
          -0.65045779943 -5.5807967186 0.24903459847 9.5986423492 -16.261960983 -1.7063754854e-07
          -0.44346082211 -10.264687538 -6.3809028461e-07 6.8552236557 -15.966522217 -0.31113263965
          -0.058739110827 -4.0236840248 -0.11161254346 0.0059938207269 -2.023137331 -2.1742998513e-07
          5.8423976898 -12.996902466 0.65246444941 -0.2413969934 -3.5298871994 0.27094963193
          1.1818511486 -12.785666466 -5.4410531902e-07 -0.81121379137 -8.2269182205 -8.548245205e-07
          0.49452707171 -9.8448505402 0.59239321947 6.8607668877 -15.972852707 -3.0698609521e-07
          -0.078118003905 -4.0358476639 -4.7807714054e-07 -0.96701616049 -7.5212540627 0.76635915041
          12.44895649 -16.585874557 0.35554686189 4.1901278496 -15.749520302 -0.60077142715
          0 0 0 -0.09915458411 -6.2357435226 -0.37330329418
          4.200469017 -15.752685547 -0.30136993527 9.5904464722 -16.252502441 0.33322259784
          0.016026504338 -2.0153536797 0.038980763406 -0.48633247614 -10.235282898 0.37869665027
          -0.1957770586 -6.3114624023 -0.19332784414 3.3519458771 -12.808223724 0.61391711235
          -0.010391316377 -13.176240921 -0.83452582359 1.1711932421 -12.772803307 0.32194522023
          -0.53931677341 -5.5477595329 0.49366801977 -0.81491059065 -8.2414646149 0.36380013824
          -1.3546571732 -10.933703423 -1.0595760345 0.034912671894 -13.144731522 -0.40900668502
          4.2029385567 -15.75625515 -4.4954555278e-07 6.8552236557 -15.966522217 0.3111320436
          -0.058739230037 -4.0236840248 0.11161157489 -1.2305700779 -10.792193413 -0.55516993999
          -0.22025062144 -6.3268971443 -7.5035120517e-07 13.569777489 -19.514167786 -0.6739603281
          0 0 0 0.084652237594 -2.0884597301 -0.083896324039
          0.077821478248 -13.18832016 -7.0886102321e-07 1.8520382643 -15.716612816 -0.6505087018
          10.64520359 -19.192932129 -0.63991516829 12.419978142 -16.555606842 0.71176350117
          0 0 0 0 0 0
          -1.1598074436 -10.769643784 -7.9381879914e-07 -0.28248593211 -8.9237728119 -0.54022371769
          13.5899086 -19.538164139 -0.33610275388 1.8663136959 -15.686562538 -0.32368853688
          10.664387703 -19.217508316 -0.31804126501 9.5637016296 -16.221164703 0.67012828588
          0.042154595256 -2.112090826 -0.034423273057 -0.50142753124 -10.305171967 0.81261241436
          0.077066026628 -2.0100879669 0.086701117456 -0.36029809713 -9.0058851242 -0.27207031846
          4.200469017 -15.752685547 0.3013690412 -0.19577717781 -6.3114619255 0.19332636893
          7.8079733849 -18.917390823 -0.60274022818 1.1696439981 -12.788993835 0.64914631844
          -0.71069288254 -8.1926517487 0.5787551403 0 0 0
          0.097536861897 -4.2751321793 -0.16032752395 13.595862389 -19.545898438 -8.2933858891e-08
          0.035495623946 -2.1217861176 -2.3699007556e-07 1.8753436804 -15.692170143 -6.0172556005e-07
          7.8236207962 -18.934766769 -0.29952642322 6.8372888565 -15.943070412 0.62556427717
          10.670763969 -19.224342346 -2.182818406e-07 0.034836765379 -3.9851052761 0.2267383635
          -0.38358563185 -9.0233764648 -9.6760584256e-07 0.040443684906 -4.3284606934 -0.080681577325
          0.03491262719 -13.144731522 0.40900525451 -1.2305700779 -10.792193413 0.55516839027
          -0.86967879534 -13.734270096 -0.94310289621 7.8289418221 -18.938673019 -3.5425992451e-07
          0.024370841682 -4.3452353477 -5.3811317002e-07 -0.62546122074 -13.871675491 -0.47020092607
          5.0292649269 -18.710577011 -0.5832939744 0 0 0
          0.015675963834 -6.7182545662 -0.24785472453 13.5899086 -19.538162231 0.33610257506
          0.042154524475 -2.112090826 0.03442280367 1.8663135767 -15.686561584 0.32368731499
          5.042257309 -18.709823608 -0.29209542274 4.1901273727 -15.749519348 0.60077053308
          10.664387703 -19.217508316 0.31804084778 0.52261263132 -16.044708252 -0.8103171587
          -0.36329695582 -12.203774452 -0.64027869701 -0.099154964089 -6.2357430458 0.37330189347
          -0.041891682893 -6.8061571121 -0.12450809032 -0.36029815674 -9.0058841705 0.27206844091
          0.56622326374 -15.989890099 -0.39322808385 -0.49459022284 -12.303768158 -0.33900716901
          -0.46579650044 -14.008787155 -9.0305343292e-07 -0.010391464457 -13.176239967 0.83452445269
          7.8236207962 -18.934766769 0.29952573776 -1.3546572924 -10.933703423 1.0595743656
          5.046102047 -18.711214066 -4.9553835879e-07 0.040443554521 -4.3284606934 0.080680504441
          -0.059708524495 -6.8309898376 -8.4506132225e-07 0.59862029552 -15.997032166 -7.6379643588e-07
          -0.52511495352 -12.273207664 -1.1211729998e-06 -0.14474128187 -9.5942182541 -0.31902876496
          2.5460352898 -18.647850037 -0.63246995211 13.569777489 -19.514167786 0.67396014929
          0 0 0 -0.62546116114 -13.871674538 0.47019913793
          0.084651887417 -2.0884594917 0.083895795047 -0.20617194474 -9.7211484909 -0.16134609282
          1.8520380259 -15.716612816 0.65050750971 10.64520359 -19.192930222 0.63991469145
          2.5656781197 -18.614845276 -0.31499910355 14.673934937 -22.508262634 -0.65159839392
          0 0 0 -0.28248623013 -8.9237728119 0.54022198915
          14.687034607 -22.530517578 -0.3247680366 0.05230165273 -2.1372494698 -0.048089578748
          11.689734459 -22.195236206 -0.6197104454 5.042257309 -18.709821701 0.29209443927
          0 0 0 -0.041891813278 -6.8061571121 0.12450642139
          11.702662468 -22.217607498 -0.30811974406 0.030757592991 -2.1703550816 -0.019885109738
          0.56622320414 -15.989890099 0.39322656393 -0.49459019303 -12.303768158 0.33900499344
          7.807972908 -18.917388916 0.60273951292 -0.22691094875 -9.7456674576 -1.1176420003e-06
          2.5755674839 -18.617034912 -6.4550562229e-07 0.097536377609 -4.2751321793 0.16032645106
          -0.37214002013 -16.59756279 -0.88758397102 0.064046412706 -4.4397730827 -0.083134740591
          8.7605304718 -21.920049667 -0.5853574276 -1.5096503496 -14.336841583 -0.91155856848
          14.691654205 -22.537454605 -1.3411430189e-07 0 0 0
          -0.28422135115 -16.546670914 -0.42626050115 11.707306862 -22.223630905 -2.6546578624e-07
          0.02752331458 -2.1807198524 -2.5793241321e-07 8.7730112076 -21.935951233 -0.29089549184
          0.037960499525 -4.4990358353 -0.041814401746 -1.5346244574 -14.390277863 -0.38106435537
          -0.86967885494 -13.734270096 0.94310110807 -0.22175511718 -16.539207458 -9.3074248753e-07
          -0.3540057838 -12.865616798 -0.43229311705 -0.20617200434 -9.7211475372 0.16134390235
          1.1026786566 -18.905380249 -0.78718978167 8.7775611877 -21.939350128 -3.9731412471e-07
          5.0292649269 -18.710575104 0.58329302073 2.5656781197 -18.614845276 0.31499779224
          -1.601334691 -14.429553032 -1.0783662674e-06 0.030128445476 -4.5187506676 -5.8765340327e-07
          0.015675501898 -6.7182540894 0.2478531301 14.687034607 -22.530517578 0.32476776838
          5.8737049103 -21.699966431 -0.56651806831 -0.42562717199 -13.023060799 -0.13025769591
          0.013600081205 -7.0424432755 -0.11592067778 1.1447563171 -18.851547241 -0.38313212991
          0.52261245251 -16.044708252 0.81031566858 -0.36329704523 -12.203774452 0.64027667046
          0 0 0 -0.0085828080773 -7.1317877769 -0.058083437383
          11.702662468 -22.217607498 0.30811920762 0.030757518485 -2.1703550816 0.019884601235
          5.8864336014 -21.700181961 -0.28337275982 -0.53602522612 -13.028007507 -1.3104961454e-06
          1.1749932766 -18.85377121 -8.0329994034e-07 -0.28422129154 -16.546670914 0.4262586534
          5.8907289505 -21.701503754 -5.3381046428e-07 -0.018412411213 -7.1592283249 -9.3325292028e-07
          8.7730102539 -21.935951233 0.29089471698 0.037960357964 -4.4990358353 0.041813228279
          -1.5346243382 -14.390277863 0.3810621798 -0.14474159479 -9.5942182541 0.3190266788
          2.5460350513 -18.647848129 0.6324686408 3.2584421635 -21.60329628 -0.61142283678
          14.673934937 -22.508260727 0.6515981555 0 0 0
          -0.1617372632 -10.103268623 -0.11291785538 0.05230127275 -2.1372494698 0.048089005053
          11.689734459 -22.195234299 0.61970990896 -0.42562705278 -13.023060799 0.13025511801
          1.1447561979 -18.851547241 0.38313052058 3.2799155712 -21.572267532 -0.30414307117
          -0.91226041317 -17.396297455 -0.97185927629 -0.17674724758 -10.216609001 -0.053806912154
          -0.0085829477757 -7.1317877769 0.058081593364 5.8864336014 -21.700181961 0.28337168694
          -0.99929744005 -17.245155334 -0.49711740017 0.11901031435 -19.330730438 -0.86710578203
          -0.98053193092 -19.450012207 0.12790180743 15.751569748 -25.541004181 -0.64005857706
          0 0 0 12.709797859 -25.232501984 -0.60710322857
          -0.37213996053 -16.59756279 0.88758212328 0.064045876265 -4.4397730827 0.0831335783
          8.7605304718 -21.920049667 0.58535665274 -1.3844064474 -19.160768509 -0.044294625521
          0.17178755999 -19.29930687 -0.43160846829 -1.5096502304 -14.33684063 0.91155642271
          15.75942421 -25.564178467 -0.31904873252 0 0 0
          -0.19870720804 -10.257917404 -1.2465942518e-06 3.2908790112 -21.574138641 -6.7812624138e-07
          0.0029073629994 -2.1521024704 -0.00063509965548 12.717985153 -25.255435944 -0.30209296942
          0.0027910054196 -2.1879575253 -0.00022878138407 -1.0699212551 -17.166790009 -1.0858871065e-06
          9.6997518539 -24.956718445 -0.57261645794 -1.3527415991 -18.920377731 -1.5467973071e-06
          0.20718479156 -19.302955627 -9.5939628864e-07 15.762861252 -25.57134819 -1.876761786e-07
          0 0 0 0.0080424807966 -4.4938063622 -0.0006181737408
          9.7094812393 -24.973840714 -0.28475108743 12.721206665 -25.26174736 -3.1175960657e-07
          -0.3540058434 -12.865615845 0.43229070306 1.1026785374 -18.905380249 0.78718823195
          0.0027329125442 -2.1986942291 -2.7488499654e-07 0.0077996901236 -4.5549321175 -0.00029294536216
          5.8737049103 -21.699966431 0.56651699543 0.013599564321 -7.0424432755 0.11591890454
          -0.66597276926 -13.953532219 -0.02594871074 1.7451997995 -21.797954559 -0.76787000895
          -0.17674730718 -10.216609001 0.053804468364 3.2799153328 -21.572267532 0.30414173007
          -0.74731111526 -14.082679749 0.011258048937 1.7824237347 -21.743551254 -0.37260279059
          -0.99929738045 -17.245153427 0.4971151948 9.7132024765 -24.977861404 -4.3631365543e-07
          0.0077565852553 -4.5750803947 -6.2558706304e-07 6.7206101418 -24.725984573 -0.55187350512
          -1.3844063282 -19.160768509 0.044291581959 0.17178760469 -19.29930687 0.43160656095
          15.75942421 -25.564178467 0.31904834509 0 0 0
          0.015424832702 -7.1511921883 -0.0014943876304 6.7321152687 -24.729640961 -0.27582815289
          12.717985153 -25.255435944 0.30209234357 0.014584067278 -7.2363033295 -0.00070199021138
          -0.82021915913 -14.095100403 -1.5036432615e-06 1.8064550161 -21.741559982 -8.3037917875e-07
          0.0027909318451 -2.1879575253 0.00022824268672 9.7094812393 -24.973840714 0.28475019336
          6.7360072136 -24.731956482 -5.651715469e-07 0.014396936633 -7.2665896416 -9.9915132523e-07
          3.258441925 -21.603294373 0.61142146587 -0.61189967394 -19.892374039 -0.92949277163
          0.0077995443717 -4.5549321175 0.00029169867048 -0.16173759103 -10.10326767 0.11291553825
          -1.6362633705 -17.934999466 -0.99111795425 -0.57660377026 -19.877550125 -0.46810129285
          -0.91226029396 -17.396295547 0.97185707092 -1.3535598516 -18.21752739 -0.51206594706
          -0.74731099606 -14.082679749 -0.011260989122 1.7824237347 -21.743551254 0.37260115147
          0.11901035905 -19.330730438 0.86710393429 -0.9805316925 -19.450012207 -0.12790472806
          0.024760559201 -10.368151665 -0.0040969476104 3.9959673882 -24.599027634 -0.59043741226
          15.751569748 -25.541004181 0.64005821943 0 0 0
          12.709797859 -25.232500076 0.60710263252 0.022522525862 -10.46924305 -0.001863166457
          -0.56349498034 -19.881322861 -1.1153871355e-06 -0.62766748667 -18.974370956 -0.11368094385
          0.68266361952 -22.126264572 -0.84102553129 4.0182466507 -24.573392868 -0.2929545939
          0.0029069671873 -2.1521024704 0.00063449866138 -1.1983714104 -18.367534637 -1.3081858015e-06
          6.7321147919 -24.729640961 0.27582702041 0.014583925717 -7.2363033295 0.00070002343273
          0.72101819515 -22.085975647 -0.41819867492 -1.1553288698 -18.795005798 -0.057071067393
          9.6997509003 -24.956716537 0.57261556387 0.022387849167 -10.512908936 -1.3437747839e-06
          4.0292224884 -24.576400757 -7.0079988745e-07 0.0080419201404 -4.4938063622 0.00061694136821
          0.74068009853 -22.075565338 -9.7615998129e-07 16.81640625 -28.618440628 -0.63606721163
          0 0 0 -1.4299969673 -18.663196564 -1.5107532363e-06
          16.820579529 -28.644260406 -0.31717947125 0 0 0
          -0.57660365105 -19.877550125 0.46809905767 13.714862823 -28.311906815 -0.59985011816
          -0.66597270966 -13.953532219 0.025946043432 1.7451996803 -21.797952652 0.76786839962
          -0.047311075032 -2.1311974525 0.047140073031 -1.3535600901 -18.217525482 0.51206338406
          13.719696045 -28.337200165 -0.2987857759 -0.025962039828 -2.1644721031 0.019548587501
          6.7206101418 -24.725982666 0.55187237263 16.823158264 -28.652317047 -2.4269343157e-07
          0.022522479296 -10.46924305 0.0018605317455 10.628807068 -28.034832001 -0.56307291985
          -0.050468247384 -4.42943573 0.082483045757 4.0182466507 -24.573392868 0.29295319319
          0 0 0 2.4522531033 -24.71859169 -0.74073684216
          0.030650425702 -14.3779459 -0.015810666606 0.015424288809 -7.1511921883 0.0014925051946
          -0.0244451873 -4.4890403748 0.041511740535 10.636611938 -28.055109024 -0.28022277355
          13.721850395 -28.344455719 -3.5678618815e-07 0.72101825476 -22.085975647 0.41819673777
          0.021314809099 -14.477040291 -0.0094009963796 2.4905900955 -24.669830322 -0.36003959179
          -1.1553281546 -18.795005798 0.057068157941 -0.022549841553 -2.1748788357 -2.8359048088e-07
          -1.073754549 -20.649848938 -0.92319059372 10.639631271 -28.060501099 -4.7128403935e-07
          -0.61189949512 -19.892374039 0.92949062586 -0.017014723271 -4.5087618828 -6.4444253667e-07
          0.024269202724 -14.528846741 -1.6048752514e-06 -1.0592521429 -20.587724686 -0.44066506624
          2.5112323761 -24.667341232 -8.4637650843e-07 -1.6362630129 -17.934997559 0.99111545086
          16.820579529 -28.644260406 0.31717899442 7.567425251 -27.795446396 -0.53787523508
          -0.49195560813 -19.560863495 -0.424877882 0 0 0
          0.011751227081 -7.0298185349 0.11528664827 -0.11430630088 -22.581480026 -0.88241171837
          0.033300984651 -7.1207485199 0.05770290643 7.5780377388 -27.804447174 -0.26894974709
          13.719696045 -28.337200165 0.29878506064 -1.3646899462 -19.455404282 -0.25898855925
          -0.065477706492 -22.552026749 -0.43458968401 -0.025962108746 -2.1644721031 -0.019549142569
          0.024760197848 -10.368151665 0.0040944726206 3.9959669113 -24.599027634 0.59043598175
          -1.066580534 -20.545173645 -1.2843186141e-06 -0.62766677141 -18.974372864 0.11367803812
          0.68266367912 -22.126264572 0.84102362394 7.5814809799 -27.808397293 -5.8993316543e-07
          10.636611938 -28.055109024 0.28022181988 -1.6634613276 -19.355728149 -1.5324438891e-06
          -0.024445325136 -4.4890403748 -0.041513022035 0.043171476573 -7.1483201981 -1.0246798183e-06
          0.021314933896 -14.477040291 0.0093978550285 2.4905900955 -24.669830322 0.36003789306
          -0.046516243368 -22.538417816 -1.114136694e-06 1.3171684742 -24.922250748 -0.80114495754
          0.0049832658842 -18.140119553 -0.063942052424 1.3588141203 -24.889875412 -0.39817216992
          0.011000240222 -18.229013443 -0.022761084139 16.81640625 -28.618438721 0.63606673479
          0 0 0 -1.0592520237 -20.587724686 0.44066256285
          0.19821940362 -10.096741676 0.1091870293 4.7560634613 -27.639764786 -0.56620919704
          0.21144515276 -10.213511467 0.051974605769 13.714862823 -28.311906815 0.5998494029
          -0.047311469913 -2.1311974525 -0.047140691429 4.7787103653 -27.62115097 -0.28121846914
          7.5780377388 -27.804447174 0.26894858479 -1.3646888733 -19.455406189 0.25898554921
          0.033300857991 -7.1207485199 -0.057704921812 -0.065477594733 -22.552026749 0.43458747864
          1.374683857 -24.87808609 -9.8179975794e-07 0.011417120695 -18.216545105 -1.722181878e-06
          10.628807068 -28.034832001 0.56307202578 -0.050468802452 -4.4294362068 -0.082484297454
          2.4522531033 -24.71859169 0.74073523283 0.23280571401 -10.255125999 -1.3790289586e-06
          0.030650420114 -14.3779459 0.015807693824 4.7889504433 -27.624862671 -7.1484146247e-07
          17.878347397 -31.748590469 -0.63730633259 0 0 0
          -1.0737540722 -20.649848938 0.92318820953 1.3588141203 -24.889875412 0.39817023277
          0 0 0 14.711326599 -31.442211151 -0.59617304802
          -1.3072654009 -21.27246666 -0.91066783667 0.011000517756 -18.229013443 0.022757679224
          -0.08132327348 -2.0766928196 0.083708629012 -0.71449148655 -23.169235229 -0.90669482946
          17.880077362 -31.778347015 -0.3179692328 7.567425251 -27.795446396 0.53787404299
          14.71407032 -31.471256256 -0.29721355438 -0.038869578391 -2.1007866859 0.033953942358
          -0.4919552803 -19.560861588 0.42487502098 -1.5100586414 -21.039850235 -0.46226751804
          0.011750694364 -7.0298190117 -0.11528857052 3.2255558968 -27.668998718 -0.7011731267
          0.21144512296 -10.213511467 -0.051977291703 -0.11430610716 -22.581480026 0.8824095726
          0.69597578049 -13.990262985 0.026706364006 4.7787103653 -27.621149063 0.28121703863
          -0.70203542709 -23.125450134 -0.44330918789 0.77777868509 -14.13952446 -0.012690717354
          3.2683916092 -27.629943848 -0.34048649669 11.550081253 -31.164297104 -0.55526787043
          17.882118225 -31.787765503 -2.9866529871e-07 -0.088683798909 -4.2565374374 0.16027066112
          0 0 0 11.556575775 -31.188774109 -0.27659857273
          -0.031643263996 -4.3096985817 0.080108717084 14.715597153 -31.479953766 -4.0015493141e-07
          0.47287273407 -25.236223221 -0.81999844313 -1.6335974932 -20.918020248 -1.3803967249e-06
          -0.73079907894 -23.086046219 -1.2258444713e-06 -0.010987442918 -20.564685822 -0.021702695638
          -0.033019583672 -2.1103954315 -2.8077974434e-07 0.51743608713 -25.219152451 -0.40543490648
          3.2868518829 -27.627635956 -8.526423585e-07 -0.0077469265088 -20.748996735 -0.022757630795
          0.84845143557 -14.15506649 -1.6626803472e-06 1.3171684742 -24.922250748 0.80114305019
          11.558877945 -31.195714951 -5.0218824299e-07 0.004983542487 -18.140119553 0.063938938081
          -0.014043726027 -4.3270893097 -6.3561304842e-07 8.4097700119 -30.918270111 -0.52414989471
          17.880077362 -31.778347015 0.31796863675 0.52256220579 -25.203619003 -1.101570092e-06
          -0.0006663868553 -6.6950306892 0.24943181872 0.1982190609 -10.09674263 -0.1091895625
          -0.015273170546 -20.716968536 -1.681547019e-06 4.7560629845 -27.639762878 0.56620776653
          0 0 0 8.4201917648 -30.933763504 -0.26167023182
          0.058308944106 -6.783331871 0.12522903085 14.71407032 -31.471256256 0.29721274972
          -1.5100581646 -21.039850235 0.46226483583 -0.70203518867 -23.125450134 0.4433067441
          -0.038869637996 -2.1007866859 -0.033954493701 3.2683913708 -27.629943848 0.34048479795
          0.77777886391 -14.13952446 0.01268741861 11.556575775 -31.188774109 0.27659758925
          8.423582077 -30.939744949 -6.0799391122e-07 2.0456602573 -27.737392426 -0.74216097593
          0.54457569122 -19.23084259 0.11459701508 0.074743591249 -6.809027195 -1.0030805697e-06
          -0.031643383205 -4.3096990585 -0.080109983683 1.0185219049 -19.08099556 0.054609980434
          0.51743620634 -25.219152451 0.40543273091 2.0891265869 -27.717603683 -0.36830750108