<?xml version="1.0"?>
<VTKFile type="UnstructuredGrid" version="0.1" byte_order="LittleEndian" header_type="UInt32" compressor="vtkZLibDataCompressor">
  <UnstructuredGrid>
    <Piece NumberOfPoints="6405" NumberOfCells="4800">
      <PointData>
        <DataArray type="Float32" Name="DISPLACEMENT" NumberOfComponents="3" ComponentName0="X-DISPLACEMENT" ComponentName1="Y-DISPLACEMENT" ComponentName2="Z-DISPLACEMENT" format="ascii" RangeMin="0" RangeMax="317.37305571">
          0 0 0 0 0 0
          2.4558103085 -1.4720554352 -1.124738574 0 0 0
          1.4888664484 -0.8474368453 -0.80545496941 0 0 0
          2.2540137768 -1.6586500406 -0.4432670176 1.2944612503 -1.0070912838 -0.32806992531
          0 0 0 4.4218654633 -2.9139971733 -1.1388151646
          0 0 0 4.3641505241 -3.1237239838 -0.58330750465
          2.991505146 -2.4360589981 -0.89629560709 0 0 0
          0 0 0 2.2647013664 -1.7147542238 5.4899800261e-08
          0.91936051846 -0.54330539703 -0.52322274446 1.2864258289 -1.0351368189 1.2337594057e-08
          2.9262514114 -2.605686903 -0.45583111048 0.79532557726 -0.69781219959 -0.21209871769
          4.3151550293 -3.1808347702 5.8138780901e-08 1.8893027306 -2.0723056793 -0.63795292377
          0 0 0 2.8876690865 -2.6564269066 -1.2798088811e-08
          1.8061187267 -2.2240538597 -0.32504782081 0 0 0
          6.1511278152 -4.8352360725 -1.0465610027 0 0 0
          0.80740040541 -0.72011607885 -1.8132167767e-08 0 0 0
          0 0 0 2.2540137768 -1.6586499214 0.44326710701
          4.3793931007 -4.3998565674 -0.86416691542 6.1719684601 -4.9792079926 -0.53273636103
          0.18784610927 -0.38024634123 -0.20123082399 1.2944612503 -1.0070911646 0.32806995511
          4.3923544884 -4.5334038734 -0.43892288208 0.080582551658 -0.55797171593 -0.10765592009
          1.7779405117 -2.2647404671 -7.2060338141e-08 4.3641505241 -3.1237237453 0.58330762386
          0 0 0 0 0 0
          0.59601891041 -1.8663607836 -0.42011785507 2.9006152153 -4.0958571434 -0.69316381216
          6.1543412209 -5.029853344 2.5055312491e-08 2.9262514114 -2.605686903 0.45583105087
          2.8744931221 -4.210670948 -0.35281044245 0.79532551765 -0.69781213999 0.21209867299
          4.382065773 -4.5766267776 -7.0652042439e-08 0.50318020582 -2.0016024113 -0.21611599624
          0.088691085577 -0.58670866489 -5.0679570762e-08 0 0 0
          7.6975617409 -6.9873008728 -0.91762888432 0 0 0
          5.6832242012 -6.5961041451 -0.79783850908 1.8061186075 -2.2240536213 0.32504767179
          7.7429976463 -7.0831313133 -0.4654968977 2.45581007 -1.472055316 1.124738574
          0 0 0 0 0 0
          0.4887675941 -2.0449903011 -1.2853593034e-07 2.8626749516 -4.2494425774 -1.5545687404e-07
          -0.17093484104 -0.65690618753 -0.24594633281 5.7219810486 -6.6896080971 -0.40216356516
          1.4888663292 -0.84743666649 0.80545496941 1.3543423414 -3.8773283958 -0.57722848654
          0 0 0 6.1719684601 -4.9792079926 0.53273642063
          -0.28598892689 -0.71549230814 -0.097333408892 1.310711503 -3.9691214561 -0.28189402819
          4.3923544884 -4.5334038734 0.43892273307 0.080582521856 -0.55797165632 0.10765580833
          3.9238805771 -6.3027815819 -0.6848397851 -0.012481939048 -2.030159235 -0.42921277881
          7.7424740791 -7.1171693802 -4.1950464436e-08 4.4218654633 -2.9139969349 1.1388152838
          0 0 0 0 0 0
          3.9360771179 -6.3886380196 -0.34600582719 2.9915049076 -2.4360585213 0.89629554749
          5.7272543907 -6.7224769592 -1.5581429125e-07 -0.043023146689 -2.0972545147 -0.18601751328
          0.91936039925 -0.54330521822 0.52322268486 -0.28338986635 -0.78517323732 -6.7873138221e-08
          1.2962442636 -4.0018086433 -2.4095780304e-07 2.8744928837 -4.2106704712 0.35281011462
          0.50318008661 -2.0016021729 0.21611571312 3.9359195232 -6.4199357033 -2.6414664944e-07
          1.8893024921 -2.0723054409 0.63795268536 -0.041557986289 -2.1544806957 -1.8503510546e-07
          2.2949612141 -6.0718216896 -0.59263533354 7.7429976463 -7.0831308365 0.46549680829
          6.1511278152 -4.8352355957 1.0465610027 0 0 0
          9.0871753693 -9.2689037323 -0.81629860401 0 0 0
          0 0 0 0.36863642931 -3.8534264565 -0.43570792675
          2.2894842625 -6.15229702 -0.29103803635 9.1314554214 -9.3344554901 -0.41098502278
          6.9072341919 -8.9030609131 -0.73164129257 5.7219810486 -6.6896080971 0.40216323733
          -1.2643449306 -0.74904870987 -0.15960524976 0 0 0
          4.3793931007 -4.3998560905 0.8641667366 0.18784599006 -0.38024625182 0.20123068988
          0.36879232526 -3.9456136227 -0.22004362941 -0.2859890759 -0.71549224854 0.097333244979
          -1.3422919512 -0.76411825418 -0.16833911836 1.3107112646 -3.9691212177 0.28189352155
          6.9476904869 -8.9712257385 -0.36657002568 3.9360768795 -6.3886375427 0.34600529075
          2.2782034874 -6.1772456169 -3.8095757304e-07 9.1385145187 -9.3581905365 -1.3571518309e-07
          -1.2652679682 -1.9545086622 -0.21318997443 -0.043023392558 -2.0972545147 0.18601711094
          0 0 0 4.9439902306 -8.6085557938 -0.64574533701
          0.59601861238 -1.8663605452 0.42011752725 2.9006149769 -4.0958566666 0.69316345453
          0.36087557673 -3.9714813232 -3.591495954e-07 6.9575381279 -8.9951639175 -2.6098012995e-07
          -0.045501556247 -1.1306544542 -1.685323241e-07 -1.3294223547 -2.0255470276 -0.24018144608
          4.9683222771 -8.67628479 -0.32274910808 7.697561264 -6.987300396 0.91762882471
          0 0 0 0.80481016636 -5.9205312729 -0.41651543975
          5.6832237244 -6.5961041451 0.79783815145 -0.48229059577 -2.4168281555 -2.2392787002e-07
          0.80383253098 -6.0169086456 -0.22523835301 4.9730496407 -8.6989307404 -3.8402754399e-07
          -0.17093519866 -0.65690600872 0.24594607949 2.289484024 -6.15229702 0.29103729129
          3.1708862782 -8.3992862701 -0.55087971687 9.1314544678 -9.3344554901 0.41098472476
          -0.2998175323 -4.2097687721 -0.51378172636 1.3543418646 -3.877327919 0.57722789049
          0 0 0 0.36879199743 -3.9456133842 0.22004291415
          3.1755428314 -8.4639015198 -0.27745884657 -1.342291832 -0.76411831379 0.16833873093
          -0.33499187231 -4.2017331123 -0.1843162775 6.9476904869 -8.9712257385 0.36656948924
          3.9238801003 -6.302781105 0.68483924866 -0.012482446618 -2.0301589966 0.42921227217
          10.362734795 -11.633699417 -0.74603307247 0 0 0
          0.80747753382 -6.0380525589 -5.1772747156e-07 8.0583515167 -11.289013863 -0.67850476503
          10.39756012 -11.684274673 -0.37361302972 0 0 0
          -0.12980265915 -1.2249073982 -0.041235659271 8.0909023285 -11.342759132 -0.33831989765
          3.1715676785 -8.4829587936 -5.1688510894e-07 -0.1083413437 -1.3135451078 -0.01375627704
          -1.3294221163 -2.0255467892 0.24018101394 -0.28247573972 -4.2411851883 -4.6736582249e-07
          4.9683218002 -8.67628479 0.32274833322 5.9217939377 -11.010334969 -0.60573071241
          -0.448120296 -2.3973691463 -0.23439101875 10.405872345 -11.70205307 -2.4902044515e-07
          0 0 0 -0.42936003208 -2.5372827053 -0.032230410725
          5.943523407 -11.062880516 -0.30051249266 8.100356102 -11.360816956 -3.795306327e-07
          -0.25150981545 -1.3384748697 -1.5893215277e-07 2.2949607372 -6.0718212128 0.59263455868
          1.3334265947 -8.267156601 -0.4578615129 9.0871753693 -9.2689037323 0.81629830599
          0 0 0 0.052933614701 -6.3519678116 -0.55178564787
          0.80383223295 -6.0169081688 0.22523732483 0.36863577366 -3.8534257412 0.43570718169
          6.9072337151 -8.9030599594 0.73164069653 -1.2643448114 -0.74904870987 0.15960496664
          0.045389097184 -6.3571863174 -0.23342780769 1.3297146559 -8.3259162903 -0.23596993089
          3.1755423546 -8.4639015198 0.27745783329 -0.33498990536 -4.2017321587 0.18431736529
          5.9488635063 -11.078397751 -5.086830015e-07 -0.44751247764 -2.7402989864 -3.2554561358e-07
          3.9221422672 -10.845995903 -0.52767664194 -0.71427321434 -4.3049330711 -0.19890479743
          -1.2652677298 -1.9545084238 0.21318973601 10.39756012 -11.684274673 0.37361252308
          4.9439897537 -8.6085557938 0.64574456215 0 0 0
          1.3401409388 -8.3452167511 -6.4766555852e-07 0.099531002343 -6.4229140282 -6.2000390244e-07
          3.9276516438 -10.885938644 -0.26672580838 8.0909023285 -11.342759132 0.33831912279
          -0.75382810831 -4.425344944 -0.13044764102 -0.10834125429 -1.3135451078 0.013755982742
          0.80480962992 -5.9205312729 0.41651442647 3.9288420677 -10.900407791 -6.4190919602e-07
          5.943523407 -11.062879562 0.30051147938 -0.42935967445 -2.5372822285 0.032229959965
          -0.68917495012 -4.4969654083 -4.582105646e-07 11.557618141 -14.073722839 -0.70021528006
          0 0 0 11.582094193 -14.11723423 -0.34955757856
          3.1708858013 -8.3992853165 0.55087870359 9.145108223 -13.746929169 -0.64068347216
          -0.29981786013 -4.2097668648 0.51378375292 0.35757669806 -8.5611104965 -0.59178262949
          -0.078104645014 -1.4530277252 -0.0026119430549 0.045392103493 -6.3571891785 0.2334266752
          1.3297142982 -8.3259153366 0.23596861959 0 0 0
          9.1681222916 -13.792567253 -0.31861138344 0.36159437895 -8.5407600403 -0.26902320981
          -0.11343590915 -1.4883047342 0.0047326968051 1.9441610575 -10.77876091 -0.50828009844
          -0.97147601843 -6.7139496803 -0.53366476297 10.362734795 -11.633698463 0.74603253603
          0 0 0 8.0583515167 -11.289012909 0.67850399017
          11.589067459 -14.131938934 -3.7785341078e-07 -0.96532642841 -6.6999635696 -0.30165174603
          1.9481142759 -10.801779747 -0.25224757195 -0.12980262935 -1.2249071598 0.041235376149
          6.844045639 -13.48497963 -0.57603114843 -0.30468034744 -2.9726834297 -0.053669452667
          0 0 0 3.9276514053 -10.885937691 0.26672452688
          -0.75382757187 -4.4253444672 0.13044658303 9.1754369736 -13.807003021 -5.0864355217e-07
          0.39611402154 -8.5749740601 -7.1428684123e-07 6.8607406616 -13.526296616 -0.28507319093
          -0.34610626101 -3.0557193756 -0.018308289349 -0.10565255582 -1.5142322779 -1.8387834189e-07
          5.9217934608 -11.010334015 0.60572969913 -0.44811990857 -2.3973686695 0.23439070582
          1.9613218307 -10.82125473 -7.7757516692e-07 -0.94161897898 -6.693377018 -2.8411821518e-07
          1.3334259987 -8.2671556473 0.45786017179 6.8656740189 -13.537377357 -6.3727793531e-07
          -0.35538703203 -3.0796246529 -4.0045355831e-07 0.052938655019 -6.3519730568 0.55178457499
          11.582093239 -14.11723423 0.3495568037 4.6222705841 -13.333348274 -0.51673907042
          0 0 0 -0.63395941257 -4.8159408569 -0.12078552693
          4.6273379326 -13.355535507 -0.25990524888 9.1681222916 -13.792567253 0.31861037016
          -0.11343589425 -1.4883044958 -0.0047330465168 0.36159440875 -8.5407600403 0.2690217495
          -0.66461664438 -4.9052424431 -0.041328236461 3.9221417904 -10.845995903 0.52767539024
          0.78790378571 -10.996416092 -0.61019957066 1.9481139183 -10.801779747 0.25224602222
          -0.71427232027 -4.3049316406 0.19890441 -0.96532505751 -6.6999659538 0.30165103078
          -0.67872095108 -8.758975029 -0.60177904367 0.81982892752 -10.984194756 -0.29255500436
          4.6278791428 -13.363843918 -7.7092829542e-07 6.8607401848 -13.526296616 0.28507190943
          -0.34610626101 -3.0557191372 0.01830750145 -0.64272683859 -8.791009903 -0.29667681456
          -0.68236148357 -4.9489870071 -5.7234427686e-07 12.69729805 -16.587568283 -0.67190653086
          0 0 0 -0.083414003253 -1.6219763756 0.0092283347622
          0.8602001667 -11.015453339 -9.2015949349e-07 2.549287796 -13.29359436 -0.52425390482
          10.183729172 -16.272281647 -0.61591225863 11.557618141 -14.073721886 0.7002145052
          0 0 0 0 0 0
          -0.56708747149 -8.8487157822 -4.5658330805e-07 -0.86744421721 -6.8452539444 -0.099014319479
          12.712996483 -16.628013611 -0.33499249816 2.5569887161 -13.293093681 -0.26104050875
          10.198710442 -16.313716888 -0.3061427176 9.1451072693 -13.746928215 0.64068245888
          -0.089845709503 -1.6403564215 0.0077259712853 0.35757654905 -8.5611104965 0.59178102016
          -0.078104794025 -1.4530274868 0.0026115854271 -0.96314406395 -6.9842367172 -0.12311686575
          4.6273374557 -13.355535507 0.25990372896 -0.66461664438 -4.9052424431 0.041327103972
          7.7348370552 -16.013734818 -0.55604171753 1.9441604614 -10.778759956 0.50827854872
          -0.97147458792 -6.7139525414 0.53366303444 0 0 0
          -0.26579993963 -3.3324270248 -0.0096575831994 12.718049049 -16.641241074 -5.2124551075e-07
          -0.095150351524 -1.6506949663 -2.2241178499e-07 2.5651140213 -13.305592537 -9.1795624257e-07
          7.7468919754 -16.049556732 -0.27545201778 6.8440451622 -13.484978676 0.57602983713
          10.203853607 -16.326295853 -6.4716834913e-07 -0.30468052626 -2.9726829529 0.05366871506
          -0.93677854538 -6.993452549 -5.8198423858e-07 -0.27806258202 -3.3659961224 0.0038578540552
          0.8198287487 -10.984193802 0.29255315661 -0.64272552729 -8.7910108566 0.29667565227
          -0.075548730791 -11.431694031 -0.71767562628 7.7508883476 -16.058956146 -7.7177418234e-07
          -0.28419053555 -3.384121418 -4.957200872e-07 -0.043448552489 -11.389046669 -0.34977698326
          5.3229694366 -15.842658997 -0.50697696209 0 0 0
          -0.52931046486 -5.210234642 -0.0037385856267 12.712996483 -16.628011703 0.33499145508
          -0.089845784009 -1.6403563023 -0.0077264085412 2.5569882393 -13.293093681 0.261038661
          5.3304724693 -15.859784126 -0.25433790684 4.6222701073 -13.333347321 0.51673746109
          10.198710442 -16.313716888 0.3061414063 1.2704781294 -13.490921974 -0.62272179127
          -1.2921402454 -9.2486658096 -0.80581349134 -0.6339597702 -4.8159403801 0.12078435719
          -0.54800605774 -5.2709465027 0.00088729138952 -0.96314394474 -6.9842376709 0.12311553955
          1.3085087538 -13.472402573 -0.30124396086 -1.2161641121 -9.2622346878 -0.29424130917
          -0.027032226324 -11.392045021 -1.1006790146e-06 0.78790342808 -10.996416092 0.61019772291
          7.7468914986 -16.049556732 0.27545046806 -0.67871910334 -8.7589759827 0.60177755356
          5.3323230743 -15.865983963 -9.0643783324e-07 -0.27806273103 -3.3659961224 -0.0038588489406
          -0.55689680576 -5.2897162437 -7.4937327099e-07 1.3445191383 -13.492341995 -1.07668086e-06
          -1.289622426 -9.2940616608 -9.3530809409e-07 -0.9028570652 -7.3093910217 -0.025403846055
          3.1162960529 -15.792633057 -0.51823019981 12.69729805 -16.587568283 0.67190551758
          0 0 0 -0.043448671699 -11.389046669 0.34977480769
          -0.083414338529 -1.6219761372 -0.0092288246378 -0.91505426168 -7.3847432137 0.0061523150653
          2.5492870808 -13.293593407 0.52425205708 10.183728218 -16.272279739 0.61591094732
          3.1294341087 -15.784420967 -0.25976747274 13.803095818 -19.175823212 -0.65629518032
          0 0 0 -0.86744439602 -6.8452544212 0.099012658
          13.812146187 -19.215475082 -0.32712650299 -0.057360153645 -1.733247757 0.013001126237
          11.193565369 -18.865650177 -0.60129469633 5.3304724693 -15.859784126 0.2543360889
          0 0 0 -0.54800623655 -5.2709465027 -0.00088880874682
          11.202409744 -18.905586243 -0.29906663299 -0.057184625417 -1.7401801348 0.0068743485026
          1.3085085154 -13.472402573 0.30124181509 -1.2161637545 -9.2622346878 0.29423934221
          7.7348361015 -16.013734818 0.55604016781 -0.94828552008 -7.4187545776 -1.0002036106e-06
          3.1372365952 -15.793065071 -1.0546324347e-06 -0.26580047607 -3.3324267864 0.009656585753
          0.32375085354 -13.841113091 -0.6851221323 -0.16569116712 -3.538557291 0.012373894453
          8.6157970428 -18.60244751 -0.54369610548 -0.6700758338 -11.901459694 -0.36541959643
          13.815526962 -19.228229523 -6.7892284505e-07 0 0 0
          0.36506289244 -13.824140549 -0.33967605233 11.205747604 -18.91759491 -7.9392862062e-07
          -0.058113656938 -1.7454782724 -2.7030938554e-07 8.6241207123 -18.636920929 -0.26975166798
          -0.1670036912 -3.5538752079 0.0091413334012 -0.83494842052 -11.861688614 -0.1848089993
          -0.075549058616 -11.431694031 0.71767348051 0.39086771011 -13.832586288 -1.2475642279e-06
          -1.3225739002 -9.4709939957 0.14255438745 -0.91505432129 -7.3847432137 -0.0061543164775
          1.7856657505 -15.984084129 -0.620857656 8.6272993088 -18.646173477 -9.0766297944e-07
          5.3229689598 -15.842658043 0.50697511435 3.1294336319 -15.784420967 0.25976535678
          -0.93981254101 -11.738890648 -1.2990479945e-06 -0.16853640974 -3.5619621277 -6.1632539428e-07
          -0.52931106091 -5.210234642 0.0037370680366 13.812145233 -19.215475082 0.32712513208
          6.0518755913 -18.404090881 -0.49713397026 -1.4473675489 -9.6560564041 0.0074558700435
          -0.33690932393 -5.5085473061 0.02080995217 1.8196444511 -15.961227417 -0.30082657933
          1.2704777718 -13.490921021 0.6227196455 -1.2921402454 -9.2486658096 0.80581146479
          0 0 0 -0.33442270756 -5.5285582542 0.01694726944
          11.202409744 -18.905584335 0.29906502366 -0.057184726 -1.7401800156 -0.0068748854101
          6.0602402687 -18.42291832 -0.24852089584 -1.4847064018 -9.6644182205 -1.2792695543e-06
          1.8474701643 -15.972002029 -1.2106154372e-06 0.36506280303 -13.824140549 0.33967354894
          6.063015461 -18.429159164 -1.0302918554e-06 -0.34101241827 -5.5436062813 -9.7964277757e-07
          8.6241207123 -18.636920929 0.26974985003 -0.16700389981 -3.5538752079 -0.0091425720602
          -0.83494782448 -11.861689568 0.18480627239 -0.90285742283 -7.3093910217 0.025401810184
          3.1162953377 -15.792632103 0.51822811365 3.6872034073 -18.315008163 -0.50238418579
          13.803094864 -19.175823212 0.65629386902 0 0 0
          -0.58525162935 -7.66882658 0.069340541959 -0.05736059323 -1.7332476377 -0.013001737185
          11.193565369 -18.865650177 0.60129308701 -1.4473674297 -9.6560564041 -0.0074584363028
          1.8196442127 -15.961227417 0.30082416534 3.7026801109 -18.307462692 -0.25153943896
          -0.5457675457 -14.247486115 -0.67988604307 -0.59383922815 -7.7044963837 0.036274891347
          -0.33442294598 -5.5285582542 -0.016949214041 6.0602402687 -18.42291832 0.24851883948
          -0.54608857632 -14.230617523 -0.34832403064 0.76154345274 -16.265478134 -0.6589525342
          -1.9909999371 -12.225261688 -0.28112187982 14.891804695 -21.842359543 -0.64951455593
          0 0 0 12.188898087 -21.533571243 -0.59394299984
          0.32375061512 -13.841113091 0.68511968851 -0.16569182277 -3.5385570526 -0.012375140563
          8.6157970428 -18.60244751 0.54369425774 -2.3597137928 -12.139325142 -0.060614321381
          0.79536890984 -16.253068924 -0.32841145992 -0.67007505894 -11.901461601 0.3654165566
          14.896204948 -21.882579803 -0.32382005453 0 0 0
          -0.60428375006 -7.7247252464 -1.3158951333e-06 3.7102282047 -18.314504623 -1.1684248875e-06
          -0.012133589946 -1.7677354813 0.010620768182 12.193401337 -21.573663712 -0.2957457006
          -0.0088456925005 -1.7715330124 0.0044463360682 -0.54286050797 -14.219451904 -1.4182498944e-06
          9.4975299835 -21.263690948 -0.53702414036 -2.6308486462 -12.029401779 -1.3781801727e-06
          0.81931060553 -16.259532928 -1.3632655964e-06 14.898290634 -21.895454407 -8.516572052e-07
          0 0 0 -0.018620288 -3.6053683758 0.01434188243
          9.5028800964 -21.299253464 -0.26681798697 12.195384979 -21.585874557 -9.4919045068e-07
          -1.3225739002 -9.4709939957 -0.14255683124 1.7856652737 -15.984084129 0.62085533142
          -0.0086154555902 -1.7751427889 -3.2699236385e-07 -0.016280347481 -3.6123363972 0.0074461596087
          6.0518751144 -18.404088974 0.4971318841 -0.33691000938 -5.5085468292 -0.020811865106
          -1.0181649923 -10.0588274 0.072331212461 2.3151862621 -18.47171402 -0.60916084051
          -0.59383934736 -7.7044963837 -0.036277502775 3.7026796341 -18.307462692 0.25153711438
          -1.0160354376 -10.086038589 0.066212169826 2.3445413113 -18.444540024 -0.29476776719
          -0.54608857632 -14.23061657 0.34832122922 9.5053129196 -21.309270859 -1.0444301779e-06
          -0.015527053736 -3.6187155247 -7.4939401884e-07 6.8089895248 -21.042673111 -0.48874890804
          -2.359713316 -12.139325142 0.060611635447 0.79536885023 -16.253068924 0.32840874791
          14.896204948 -21.882577896 0.3238183558 0 0 0
          -0.020171303302 -5.6017479897 0.016400462016 6.8163084984 -21.066335678 -0.24398379028
          12.193400383 -21.573663712 0.29574379325 -0.01933901757 -5.6110954285 0.0086073447019
          -1.0522330999 -10.123500824 -1.5922406646e-06 2.366568327 -18.448646545 -1.3256142211e-06
          -0.008845792152 -1.7715330124 -0.0044469828717 9.5028800964 -21.299253464 0.2668159008
          6.8191065788 -21.073965073 -1.1476835198e-06 -0.019151588902 -5.6209812164 -1.1982457409e-06
          3.6872029305 -18.315008163 0.50238186121 -0.16773450375 -16.598812103 -0.69444990158
          -0.016280548647 -3.6123363972 -0.0074476585723 -0.58525210619 -7.6688261032 -0.069343075156
          -1.5819187164 -14.052424431 -0.52024972439 -0.14592123032 -16.5896492 -0.34580090642
          -0.54576766491 -14.247485161 0.67988324165 -2.0575501919 -14.056302071 -0.33141478896
          -1.0160354376 -10.086038589 -0.06621529907 2.3445413113 -18.444540024 0.29476511478
          0.76154327393 -16.265478134 0.65894985199 -1.990999341 -12.225262642 0.2811191678
          -0.016543466598 -7.826482296 0.016192471609 4.2934875488 -20.908082962 -0.48380732536
          14.891803741 -21.842359543 0.649512887 0 0 0
          12.188897133 -21.533571243 0.59394109249 -0.018033470958 -7.8278069496 0.0084815192968
          -0.13117398322 -16.596387863 -1.5075180499e-06 -1.7879210711 -12.363409042 0.30395653844
          1.2395615578 -18.711561203 -0.64890193939 4.309114933 -20.906394958 -0.24160465598
          -0.012134088203 -1.7677353621 -0.010621497408 -2.6933424473 -14.021819115 -1.2499176592e-06
          6.8163084984 -21.066335678 0.2439814806 -0.019339224324 -5.6110954285 -0.0086097130552
          1.2600163221 -18.686946869 -0.31984204054 -1.7137676477 -12.441861153 -0.15873062611
          9.4975290298 -21.263690948 0.5370220542 -0.018417915329 -7.8485784531 -1.6117068071e-06
          4.3163504601 -20.913799286 -1.2677650147e-06 -0.018621005118 -3.6053681374 -0.014343371615
          1.2728303671 -18.681703568 -1.4633737919e-06 15.974041939 -24.592924118 -0.6482141614
          0 0 0 -1.4085252285 -12.387107849 -1.7293742758e-06
          15.975550652 -24.634429932 -0.32333835959 0 0 0
          -0.14592120051 -16.5896492 0.34579789639 13.17817688 -24.284143448 -0.59128266573
          -1.0181652308 -10.0588274 -0.072334237397 2.3151857853 -18.47171402 0.60915821791
          0.033148352057 -1.7223587036 0.0083682592958 -2.057549715 -14.056302071 0.33141210675
          13.179858208 -24.325214386 -0.29480341077 0.039578430355 -1.7290771008 0.0021765423007
          6.808989048 -21.042671204 0.48874658346 15.976778984 -24.647764206 -1.0416638361e-06
          -0.018033588305 -7.8278074265 -0.0084846820682 10.383270264 -24.008815765 -0.53413504362
          0.12797498703 -3.5164227486 0.016928547993 4.3091144562 -20.906394958 0.24160210788
          0 0 0 2.8950853348 -20.995088577 -0.59598863125
          -0.012581900693 -10.253635406 0.012232210487 -0.020172022283 -5.6017479897 -0.016402743757
          0.13416017592 -3.5314908028 0.0061333710328 10.386385918 -24.046512604 -0.26572012901
          13.180872917 -24.33795929 -1.114597012e-06 1.2600162029 -18.686946869 0.31983914971
          -0.015516558662 -10.228987694 0.0063715046272 2.9220805168 -20.965208054 -0.28705996275
          -1.7137674093 -12.441861153 0.15872722864 0.040950931609 -1.734099865 -3.8532891722e-07
          -0.92749285698 -17.017848969 -0.75149035454 10.388088226 -24.057754517 -1.1837998954e-06
          -0.16773453355 -16.598812103 0.69444692135 0.13714654744 -3.5391144753 -8.7057270548e-07
          -0.017266346142 -10.241923332 -1.9430192424e-06 -0.90414339304 -17.008760452 -0.36074566841
          2.9405426979 -20.965606689 -1.4219122022e-06 -1.5819182396 -14.052424431 0.52024686337
          15.975550652 -24.634429932 0.32333627343 7.5849957466 -23.771970749 -0.48297569156
          -3.7933957577 -14.170057297 -0.544467628 0 0 0
          0.29291021824 -5.4736862183 0.013518057764 0.31516081095 -19.03289032 -0.68654894829
          0.29249414802 -5.493927002 0.0014239778975 7.5907902718 -23.801111221 -0.24118559062
          13.179857254 -24.325212479 0.29480117559 -3.727004528 -14.11978817 -0.50032293797
          0.3278144896 -19.007471085 -0.33261370659 0.039578340948 -1.7290771008 -0.0021772996988
          -0.016543999314 -7.826482296 -0.016195481643 4.2934865952 -20.908082962 0.48380476236
          -0.89709496498 -17.018131256 -1.6555662796e-06 -1.7879209518 -12.363409996 -0.30395975709
          1.2395614386 -18.711561203 0.64889907837 7.5935530663 -23.810493469 -1.2613296576e-06
          10.386385918 -24.046510696 0.26571774483 -1.1733517647 -14.341504097 -1.7650545487e-06
          0.13415999711 -3.5314908028 -0.0061351014301 0.29947170615 -5.5083837509 -1.3829107957e-06
          -0.015516493469 -10.228987694 -0.0063753193244 2.9220802784 -20.965208054 0.28705710173
          0.32900774479 -18.997238159 -1.591053433e-06 1.7691862583 -21.150413513 -0.63662606478
          -0.021039107814 -12.749139786 0.0094409026206 1.7806916237 -21.120040894 -0.31079769135
          -0.021089501679 -12.718301773 0.0052401875146 15.974040985 -24.592924118 0.64821207523
          0 0 0 -0.90414327383 -17.008760452 0.36074239016
          0.54490578175 -7.623509407 -0.033188592643 4.9449167252 -23.602624893 -0.46562424302
          0.55170577765 -7.6613330841 -0.017234060913 13.178175926 -24.284143448 0.59128040075
          0.033147826791 -1.7223587036 -0.0083690900356 4.9601144791 -23.608289719 -0.2328685075
          7.5907897949 -23.801111221 0.24118305743 -3.7270038128 -14.119789124 0.50031977892
          0.292493999 -5.493927002 -0.0014266920043 0.32781457901 -19.007471085 0.33261054754
          1.7832171917 -21.105573654 -1.5507993112e-06 -0.021652055904 -12.534130096 -2.1787132027e-06
          10.38326931 -24.008815765 0.53413265944 0.12797427177 -3.5164227486 -0.016930241138
          2.8950848579 -20.995088577 0.59598582983 0.56086361408 -7.6807346344 -1.8469689849e-06
          -0.012582105584 -10.253635406 -0.012235785834 4.9677915573 -23.616117477 -1.3528350564e-06
          17.055686951 -27.43255043 -0.64999586344 0 0 0
          -0.92749279737 -17.017848969 0.75148713589 1.7806916237 -21.120040894 0.3107945919
          0 0 0 14.16519928 -27.123416901 -0.59127694368
          -3.9007518291 -16.749141693 -0.52540850639 -0.021089188755 -12.718302727 -0.0052444348112
          0.060436621308 -1.6004019976 0.012476641685 -0.43829673529 -19.462114334 -0.69548141956
          17.055633545 -27.475790024 -0.32448428869 7.5849952698 -23.771970749 0.48297312856
          14.165532112 -27.166017532 -0.29508012533 0.0732421875 -1.6175423861 0.0016350247897
          -3.7933952808 -14.170057297 0.54446446896 -3.8687231541 -16.63483429 -0.61690253019
          0.29290956259 -5.4736866951 -0.013520642184 3.5685155392 -23.590955734 -0.57753533125
          0.55170571804 -7.6613335609 0.017230434343 0.31516087055 -19.03289032 0.68654584885
          0.98815011978 -10.027359962 -0.043551597744 4.9601140022 -23.608289719 0.23286578059
          -0.45755258203 -19.421218872 -0.33868858218 0.97700923681 -10.056051254 -0.051189292222
          3.594325304 -23.559919357 -0.27672234178 11.2722826 -26.846403122 -0.53326809406
          17.056402206 -27.489805222 -1.2517632513e-06 0.22896502912 -3.2902698517 0.039189565927
          0 0 0 11.273838997 -26.885829926 -0.26562440395
          0.24620233476 -3.3217625618 0.011801345274 14.166122437 -27.17952919 -1.2924587054e-06
          0.83100777864 -21.400360107 -0.65526491404 -1.1164546013 -17.426767349 -1.7209068801e-06
          -0.48763898015 -19.397439957 -1.7033484028e-06 -0.040077753365 -14.554088593 0.020608071238
          0.078731156886 -1.6270641088 -4.3792712745e-07 0.82772237062 -21.363166809 -0.31638929248
          3.6087195873 -23.557041168 -1.4998569213e-06 -0.046117614955 -14.823847771 0.0087557537481
          1.0130988359 -10.092524529 -2.2366143639e-06 1.7691861391 -21.150413513 0.63662302494
          11.274643898 -26.897794724 -1.3284477518e-06 -0.021038796753 -12.749139786 -0.0094449296594
          0.25361794233 -3.3385386467 -9.5677523859e-07 8.3740510941 -26.600460052 -0.47988122702
          17.055633545 -27.475790024 0.3244817853 0.80991655588 -21.33572197 -1.6584958757e-06
          0.48270815611 -5.1474776268 0.040761746466 0.54490530491 -7.6235098839 0.03318521753
          -0.042180154473 -14.676203728 -2.2310994154e-06 4.9449157715 -23.602624893 0.4656214416
          0 0 0 8.3793363571 -26.633659363 -0.23874014616
          0.50419461727 -5.2056546211 0.019002445042 14.165532112 -27.166017532 0.29507753253
          -3.8687224388 -16.63483429 0.61689925194 -0.45755240321 -19.421218872 0.33868518472
          0.073242120445 -1.6175423861 -0.0016358739231 3.5943248272 -23.559919357 0.27671936154
          0.97700947523 -10.056051254 0.051184941083 11.273838043 -26.885829926 0.26562175155
          8.3826751709 -26.644119263 -1.37032373e-06 2.3998472691 -23.619167328 -0.61820292473
          1.7585273981 -12.380791664 -0.30260044336 0.51309835911 -5.2224440575 -1.4969693893e-06
          0.24620221555 -3.3217625618 -0.011803238653 1.6725760698 -12.454133034 0.16849984229
          0.82772248983 -21.363166809 0.31638598442 2.4037144184 -23.58722496 -0.29938736558