<?xml version="1.0"?>
<VTKFile type="UnstructuredGrid" version="0.1" byte_order="LittleEndian" header_type="UInt32" compressor="vtkZLibDataCompressor">
  <UnstructuredGrid>
    <Piece NumberOfPoints="6405" NumberOfCells="4800">
      <PointData>
        <DataArray type="Float32" Name="DISPLACEMENT" NumberOfComponents="3" ComponentName0="X-DISPLACEMENT" ComponentName1="Y-DISPLACEMENT" ComponentName2="Z-DISPLACEMENT" format="ascii" RangeMin="0" RangeMax="375.80694423">
          0 0 0 0 0 0
          2.7506091595 -1.5780454874 -1.2716343403 0 0 0
          1.5973850489 -0.88124811649 -0.86208313704 0 0 0
          2.5277836323 -1.8188853264 -0.50198060274 1.3899534941 -1.090500474 -0.35142695904
          0 0 0 5.0121641159 -3.2704651356 -1.3078346252
          0 0 0 4.9486346245 -3.555583477 -0.66548883915
          3.2128181458 -2.7312891483 -0.9609490633 0 0 0
          0 0 0 2.544344902 -1.888952136 2.0473345685e-08
          0.86108446121 -0.57130336761 -0.50611525774 1.3835270405 -1.1286821365 7.5503825414e-09
          3.1415252686 -2.9720122814 -0.48822802305 0.73193705082 -0.77642786503 -0.21031042933
          4.8979854584 -3.6337521076 3.8741728048e-08 1.7451585531 -2.3650965691 -0.59780818224
          0 0 0 3.09862113 -3.0443108082 1.5431494305e-08
          1.6718069315 -2.5883245468 -0.30532062054 0 0 0
          7.040207386 -5.6648864746 -1.2125816345 0 0 0
          0.72809690237 -0.81034195423 -5.6548778993e-09 0 0 0
          0 0 0 2.5277836323 -1.8188853264 0.50198066235
          4.7128810883 -5.1619215012 -0.9223112464 7.0613956451 -5.8833155632 -0.61265802383
          -0.011185472831 -0.49816170335 -0.11159328371 1.3899534941 -1.090500474 0.35142695904
          4.7249107361 -5.3672018051 -0.46746817231 -0.10330595821 -0.72444140911 -0.069102309644
          1.6422311068 -2.6516637802 -1.0254640692e-08 4.9486346245 -3.5555832386 0.66548889875
          0 0 0 0 0 0
          0.13384231925 -2.2229504585 -0.25755006075 2.6957399845 -4.8315353394 -0.63713568449
          7.040415287 -5.9559612274 5.807516601e-08 3.1415252686 -2.9720122814 0.48822805285
          2.6575610638 -5.0174479485 -0.32248154283 0.73193705082 -0.77642780542 0.21031041443
          4.7121357918 -5.4301147461 2.5572271412e-08 0.048741668463 -2.4383888245 -0.13909056783
          -0.12131392956 -0.76942956448 -2.6199289849e-08 0 0 0
          8.8668804169 -8.5006685257 -1.0626261234 0 0 0
          6.1368379593 -8.0492143631 -0.85560768843 1.6718069315 -2.5883243084 0.30532059073
          8.9147605896 -8.6561870575 -0.53521591425 2.7506091595 -1.5780454874 1.2716343403
          0 0 0 0 0 0
          0.026448065415 -2.5033068657 -3.9502012328e-08 2.6384091377 -5.0721549988 -7.8992696828e-09
          -1.0469058752 -0.68385589123 0.2452762723 6.1722106934 -8.1995487213 -0.42952504754
          1.5973850489 -0.88124805689 0.86208313704 0.53471177816 -4.6665830612 -0.38789382577
          0 0 0 7.0613956451 -5.8833155632 0.61265814304
          -1.16320014 -0.91614723206 0.089543014765 0.46426030993 -4.8299059868 -0.19949321449
          4.7249107361 -5.3672013283 0.46746820211 -0.10330594331 -0.72444140911 0.06910225749
          3.6724905968 -7.737361908 -0.65368407965 -1.3969038725 -2.3296031952 -0.047600515187
          8.90969944 -8.7073659897 7.7466836501e-08 5.0121641159 -3.2704651356 1.3078346252
          0 0 0 0 0 0
          3.6575193405 -7.8705949783 -0.32936528325 3.2128181458 -2.7312889099 0.9609490633
          6.1751623154 -8.2475471497 3.8440344241e-08 -1.5294815302 -2.5063481331 -0.012579261325
          0.86108446121 -0.57130330801 0.50611519814 -1.2048851252 -0.97842538357 -6.3935630124e-08
          0.44402694702 -4.881465435 -4.3876909217e-08 2.6575610638 -5.0174479485 0.32248154283
          0.048741683364 -2.4383888245 0.13909047842 3.6509902477 -7.9136309624 -1.3452886027e-10
          1.7451585531 -2.3650963306 0.59780818224 -1.5488553047 -2.5758264065 -7.3363707997e-08
          1.1291913986 -7.5649662018 -0.49751874804 8.9147615433 -8.6561870575 0.53521609306
          7.040207386 -5.6648864746 1.2125817537 0 0 0
          10.488696098 -11.635255814 -0.93245321512 0 0 0
          0 0 0 -1.3185161352 -4.7429213524 -0.28898456693
          1.082844615 -7.668317318 -0.25033980608 10.536149979 -11.737994194 -0.46723994613
          7.4722113609 -11.22659111 -0.79448711872 6.1722106934 -8.1995487213 0.42952513695
          -1.7665594816 -1.109998703 0.8149138689 0 0 0
          4.7128810883 -5.1619215012 0.922311306 -0.011185469106 -0.49816161394 0.11159323901
          -1.4394237995 -4.8351755142 -0.13039371371 -1.16320014 -0.91614717245 -0.089543126523
          -1.3904900551 -1.3319293261 0.40490084887 0.46426030993 -4.8299059868 0.19949312508
          7.5092782974 -11.327545166 -0.39631161094 3.6575193405 -7.8705949783 0.32936528325
          1.0739992857 -7.7070188522 -4.3553612272e-08 10.538249969 -11.772372246 9.6128907501e-08
          -2.9152729511 -2.6744062901 -0.19103272259 -1.5294815302 -2.5063481331 0.012579113245
          0 0 0 4.6805329323 -10.929570198 -0.66135931015
          0.13384233415 -2.2229502201 0.25754997134 2.6957399845 -4.8315353394 0.63713568449
          -1.4603472948 -4.8825716972 -8.4440451076e-08 7.5170845985 -11.359695435 5.2997677358e-08
          -1.1148706675 -1.3595051765 -7.5554800105e-07 -3.126502037 -2.6639809608 -0.038449704647
          4.6785812378 -11.013789177 -0.33057457209 8.8668804169 -8.5006685257 1.0626262426
          0 0 0 -0.96312916279 -7.6552124023 -0.49901151657
          6.1368379593 -8.0492143631 0.85560780764 -3.1114733219 -2.7343935966 -8.0504456434e-08
          -1.0553290844 -7.6728563309 -0.23460026085 4.6785421371 -11.041622162 9.5307379766e-09
          -1.0469059944 -0.68385577202 -0.2452763617 1.082844615 -7.668317318 0.25033971667
          1.8644845486 -10.745916367 -0.57342624664 10.536149979 -11.737994194 0.46724015474
          -2.7169654369 -5.1777377129 -0.55503594875 0.53471183777 -4.6665830612 0.38789373636
          0 0 0 -1.4394237995 -4.8351755142 0.1303935349
          1.8384242058 -10.79853344 -0.28597679734 -1.3904891014 -1.3319288492 -0.40490224957
          -2.8651509285 -5.0898222923 -0.22651046515 7.5092782974 -11.327544212 0.39631173015
          3.6724905968 -7.737361908 0.65368407965 -1.3969038725 -2.3296029568 0.04760036245
          11.93439579 -14.947147369 -0.83194345236 0 0 0
          -1.0722446442 -7.7028245926 -9.3526836054e-08 8.7262334824 -14.571867943 -0.74380934238
          11.973733902 -15.012442589 -0.41596713662 0 0 0
          -1.1309622526 -2.3918912411 0.14097818732 8.758518219 -14.636235237 -0.36994534731
          1.8352144957 -10.822258949 -3.9381227168e-08 -1.2423762083 -2.1648042202 -0.043586038053
          -3.126502037 -2.6639807224 0.03844955191 -2.8630402088 -5.1261930466 -1.2312257525e-07
          4.6785812378 -11.013789177 0.33057460189 5.6988778114 -14.283277512 -0.65808719397
          -3.602866888 -6.8056678772 -0.56699025631 11.978219986 -15.034230232 1.1458448768e-07
          0 0 0 -3.6805744171 -6.5337643623 -0.77268654108
          5.7051534653 -14.33262825 -0.32813242078 8.7668848038 -14.656299591 6.9999863683e-08
          -1.0668042898 -2.5575487614 -4.2032479541e-07 1.1291913986 -7.5649662018 0.49751865864
          -0.4476569891 -10.827320099 -0.63799035549 10.488696098 -11.635255814 0.93245339394
          0 0 0 -2.3200156689 -8.220000267 -0.79851490259
          -1.0553290844 -7.6728563309 0.23460006714 -1.3185162544 -4.7429208755 0.28898438811
          7.4722113609 -11.22659111 0.79448723793 -1.76655972 -1.109998703 -0.81491464376
          -2.3899183273 -8.1022109985 -0.3639960289 -0.50007915497 -10.796823502 -0.30666568875
          1.8384242058 -10.79853344 0.28597670794 -2.8651509285 -5.0898222923 0.22651021183
          5.7078528404 -14.348748207 2.456796544e-08 -1.7791103125 -4.0040769577 -3.0971932574e-07
          2.6886742115 -14.09016037 -0.61423712969 -3.56726861 -5.8903055191 -1.0559461117
          -2.9152731895 -2.6744062901 0.19103263319 11.973733902 -15.012442589 0.41596737504
          4.6805329323 -10.929570198 0.66135931015 0 0 0
          -0.50877380371 -10.813296318 -9.5106571507e-08 -2.3779163361 -8.1258535385 -1.5279368881e-07
          2.6797220707 -14.109854698 -0.30596131086 8.758518219 -14.636234283 0.36994549632
          -3.6638476849 -5.6058893204 -0.48218825459 -1.2423758507 -2.1648042202 0.04358555004
          -0.96312922239 -7.6552119255 0.49901130795 2.6797738075 -14.122143745 -2.6392351415e-08
          5.7051534653 -14.33262825 0.32813248038 -3.6805722713 -6.5337634087 0.77268612385
          -3.625777483 -5.6093225479 -1.1200004479e-07 13.246405602 -18.358905792 -0.76018738747
          0 0 0 13.276515007 -18.400310516 -0.37950763106
          1.8644845486 -10.745916367 0.57342618704 9.9119443893 -18.007408142 -0.70325952768
          -2.7169654369 -5.177737236 0.55503565073 -1.9049057961 -11.39359951 -0.92633211613
          -1.0580644608 -3.7172915936 0.025446945801 -2.3899183273 -8.1022109985 0.36399570107
          -0.50007921457 -10.796823502 0.30666548014 0 0 0
          9.9378643036 -18.048274994 -0.34943464398 -1.9236441851 -11.269012451 -0.43945258856
          -1.037279129 -3.6128983498 -0.25930675864 0.18906994164 -14.146865845 -0.7039052248
          -2.9880537987 -9.1361932755 -1.2101783752 11.93439579 -14.947147369 0.83194363117
          0 0 0 8.7262334824 -14.571866989 0.7438095212
          13.281546593 -18.413913727 1.3389438891e-07 -2.9517602921 -8.9543733597 -0.58683156967
          0.17132897675 -14.09395504 -0.34240955114 -1.1309617758 -2.3918912411 -0.14097833633
          6.715323925 -17.7228508 -0.64678144455 -2.6845855713 -6.7948522568 -0.98683488369
          0 0 0 2.6797220707 -14.109854698 0.30596125126
          -3.6638474464 -5.6058893204 0.48218789697 9.9452228546 -18.060342789 9.0706642197e-08
          -1.9089984894 -11.279056549 -1.6819150517e-07 6.7260427475 -17.750951767 -0.32205086946
          -2.7562530041 -6.5244598389 -0.90123319626 -0.56828308105 -3.4158532619 -4.4998182602e-07
          5.6988778114 -14.283277512 0.65808725357 -3.602865696 -6.8056664467 0.56698983908
          0.17007046938 -14.099936485 -8.4896186081e-08 -2.8940312862 -8.958978653 -2.6903620665e-07
          -0.4476569891 -10.827320099 0.63799017668 6.7298402786 -17.759475708 4.6411148702e-08
          -0.89328598976 -6.2506403923 -6.8605891101e-07 -2.3200154305 -8.2199993134 0.79851454496
          13.276515007 -18.400310516 0.37950789928 3.5596859455 -17.516910553 -0.62571203709
          0 0 0 -2.7010705471 -5.9508280754 -0.92533314228
          3.5624871254 -17.519369125 -0.31186932325 9.9378643036 -18.048274994 0.3494348228
          -1.0372786522 -3.6128981113 0.25930607319 -1.9236440659 -11.269012451 0.43945226073
          -2.7804639339 -5.7166986465 -1.1131535769 2.6886742115 -14.09016037 0.61423707008
          -1.4323982 -14.635435104 -0.95995259285 0.17132897675 -14.09395504 0.34240937233
          -3.5672683716 -5.8903055191 1.0559456348 -2.9517602921 -8.9543733597 0.58683103323
          -2.5204071999 -12.404277802 -1.2256770134 -1.4198325872 -14.515010834 -0.46573972702
          3.5645968914 -17.524589539 -3.4488276679e-09 6.7260427475 -17.750951767 0.32205095887
          -2.756251812 -6.524459362 0.90123212337 -2.4503641129 -12.292952538 -0.61328905821
          -1.6339337826 -9.8771295547 -7.7259045383e-07 14.46616745 -21.82841301 -0.71211284399
          0 0 0 0.060387276113 -4.0684719086 -0.29550054669
          -1.4027340412 -14.514093399 -1.6058463359e-07 0.8908714056 -17.531253815 -0.71725672483
          11.044614792 -21.492012024 -0.67266392708 13.246405602 -18.358905792 0.76018762589
          0 0 0 0 0 0
          -2.3836877346 -12.31522274 -2.830189203e-07 -3.9394640923 -9.8183641434 -1.3360923529
          14.487659454 -21.856296539 -0.35515674949 0.89490771294 -17.472475052 -0.35169717669
          11.063909531 -21.51958847 -0.33414769173 9.9119443893 -18.007408142 0.7032597065
          -0.083654083312 -4.0374093056 -0.19602835178 -1.9049056768 -11.393598557 0.9263317585
          -1.0580642223 -3.7172911167 -0.025447372347 -3.9088716507 -9.6673202515 -0.72431689501
          3.5624871254 -17.519369125 0.31186932325 -2.7804629803 -5.7167005539 1.1131511927
          7.7218747139 -21.209190369 -0.63125950098 0.18906997144 -14.146865845 0.70390504599
          -2.9880535603 -9.1361932755 1.2101777792 0 0 0
          0.15516878664 -7.1564702988 -0.88723927736 14.492324829 -21.865169525 1.5530882536e-07
          -0.017492489889 -3.9282267094 -6.2002953882e-07 0.89872175455 -17.472511292 -6.1502611004e-08
          7.733148098 -21.226158142 -0.3145031929 6.715323925 -17.7228508 0.64678156376
          11.069829941 -21.527008057 1.1602854499e-07 -2.6845855713 -6.7948513031 0.98683387041
          -3.8779168129 -9.6081924438 -4.453729332e-07 0.21051895618 -7.6471505165 -0.5473510623
          -1.4198325872 -14.515010834 0.46573939919 -2.4503638744 -12.292952538 0.61328852177
          -2.1654317379 -15.55598259 -1.2152634859 7.736998558 -21.230514526 7.5352964757e-08
          -0.068541221321 -7.9846467972 -1.0811094171e-06 -2.0939946175 -15.451656342 -0.6050325036
          4.4537000656 -20.992368698 -0.62061429024 0 0 0
          -0.92110216618 -9.5042505264 -2.4296274185 14.487659454 -21.856296539 0.35515704751
          -0.083653919399 -4.0374093056 0.1960272342 0.89490771294 -17.472475052 0.35169705749
          4.4618082047 -20.987895966 -0.30968812108 3.5596859455 -17.516910553 0.62571203709
          11.063909531 -21.51958847 0.33414793015 -0.88281953335 -17.93081665 -0.94905471802
          -3.2711927891 -13.255367279 -1.4110981226 -2.7010703087 -5.9508275986 0.92533153296
          -0.8098039031 -10.769328117 -0.77335059643 -3.9088714123 -9.6673202515 0.72431606054
          -0.85125148296 -17.818788528 -0.46322476864 -3.1386060715 -13.210436821 -0.72293269634
          -2.0413193703 -15.456805229 -2.6184082458e-07 -1.4323982 -14.635435104 0.95995229483
          7.733148098 -21.226158142 0.31450334191 -2.5204069614 -12.404277802 1.2256765366
          4.4649343491 -20.989765167 2.9080448272e-08 0.21051880717 -7.6471505165 0.54734891653
          -1.0094908476 -12.089212418 -4.410819372e-07 -0.83169448376 -17.812282562 -1.3409038502e-07
          -3.0433075428 -13.252814293 -4.1038447307e-07 -2.3990318775 -17.772176743 -0.070139795542
          1.6457470655 -20.965154648 -0.7080206275 14.466168404 -21.82841301 0.71211314201
          0 0 0 -2.093994379 -15.451656342 0.60503202677
          0.060387030244 -4.0684719086 0.29549962282 -2.988039732 -18.148675919 -0.19674532115
          0.89087146521 -17.531253815 0.71725660563 11.044614792 -21.492012024 0.6726641655
          1.6612762213 -20.908157349 -0.34784525633 15.626319885 -25.337440491 -0.6826595068
          0 0 0 -3.9394638538 -9.8183641434 1.3360916376
          15.640349388 -25.358823776 -0.34031102061 0.18442769349 -3.8935842514 -0.12969702482
          12.140173912 -25.010560989 -0.65168356895 4.4618082047 -20.987895966 0.30968818069
          0 0 0 -0.80980396271 -10.769327164 0.77334827185
          12.153245926 -25.031665802 -0.32392287254 0.074457250535 -4.1125764847 -0.072808884084
          -0.85125142336 -17.818788528 0.46322453022 -3.1386058331 -13.210436821 0.72293186188
          7.7218747139 -21.209190369 0.63125967979 -3.0492782593 -18.260152817 -9.4674044249e-07
          1.6684421301 -20.905723572 -2.502328833e-08 0.15516865253 -7.1564698219 0.8872371912
          -1.7436400652 -18.713941574 -1.1697388887 -0.020046073943 -8.2454872131 -0.37800753117
          8.7122745514 -24.726821899 -0.61856544018 -2.6225790977 -16.645320892 -1.3849543333
          15.644227982 -25.365400314 1.8023727932e-07 0 0 0
          -1.6710124016 -18.61706543 -0.58110517263 12.15768528 -25.037006378 1.471047284e-07
          0.047570455819 -4.1363348961 -8.9725739372e-07 8.7218084335 -24.739189148 -0.30835291743
          -0.059948727489 -8.3115911484 -0.27623769641 -2.5023236275 -16.60382843 -0.68966591358
          -2.1654314995 -15.555981636 1.2152630091 -1.629645586 -18.609020233 -2.2507161646e-07
          -2.8076264858 -15.158623695 -1.4839925766 -2.9880390167 -18.148675919 0.19674342871
          -0.25583702326 -21.262704849 -0.91227829456 8.7254590988 -24.741985321 1.1155783142e-07
          4.4537000656 -20.992368698 0.62061434984 1.6612763405 -20.908157349 0.34784522653
          -2.4274625778 -16.624074936 -3.778390294e-07 -0.039377652109 -8.8400030136 -1.6974527171e-06
          -0.92110157013 -9.5042495728 2.4296240807 15.640349388 -25.358823776 0.34031137824
          5.3537111282 -24.498605728 -0.61146885157 -3.0835094452 -15.077181816 -0.72143232822
          -0.94246780872 -11.849647522 -0.83041781187 -0.21435053647 -21.16157341 -0.44692921638
          -0.88281947374 -17.93081665 0.9490544796 -3.2711925507 -13.255367279 1.4110974073
          0 0 0 -1.1793589592 -17.249397278 -0.030984414741
          12.153245926 -25.031665802 0.32392317057 0.074457764626 -4.1125764847 0.072807371616
          5.3633165359 -24.49297142 -0.30530068278 -3.1296918392 -14.94528389 -5.4617220258e-07
          -0.19408614933 -21.151382446 -9.1232180921e-08 -1.6710122824 -18.61706543 0.5811047554
          5.3670983315 -24.493749619 7.1085622722e-08 -1.2178827524 -17.382833481 -3.0288858852e-06
          8.7218084335 -24.739189148 0.30835312605 -0.05994752422 -8.3115921021 0.27623453736
          -2.5023233891 -16.60382843 0.68966519833 -2.3990306854 -17.772176743 0.070137985051
          1.6457471848 -20.965154648 0.70802056789 2.4386274815 -24.424312592 -0.68740707636
          15.626319885 -25.337440491 0.68265986443 0 0 0
          -0.91969287395 -17.332954407 -0.081738419831 0.18442773819 -3.8935844898 0.12969580293
          12.140173912 -25.010560989 0.65168386698 -3.0835089684 -15.07718277 0.72143119574
          -0.21435047686 -21.161571503 0.44692903757 2.4597802162 -24.374492645 -0.33862122893
          -2.1531128883 -19.695207596 -1.2959077358 -1.2389154434 -17.488414764 -0.090945087373
          -1.1793558598 -17.249391556 0.030980482697 5.3633165359 -24.49297142 0.30530083179
          -2.0437731743 -19.64484787 -0.64730095863 -1.224603653 -21.878320694 -1.1004121304
          -2.5984210968 -17.809537888 -1.4141408205 16.75123024 -28.879825592 -0.66730052233
          0 0 0 13.20998764 -28.558767319 -0.63915550709
          -1.7436398268 -18.713941574 1.1697385311 -0.020045230165 -8.2454862595 0.3780053556
          8.7122745514 -24.726821899 0.6185656786 -2.5224840641 -17.806623459 -0.71998614073
          -1.1511347294 -21.794902802 -0.54512310028 -2.6225786209 -16.645320892 1.384953618
          16.759321213 -28.899332047 -0.33269059658 0 0 0
          -1.2662518024 -17.581417084 -8.1702955868e-07 2.4684886932 -24.371871948 2.447282732e-08
          -0.20131094754 -3.9456994534 0.16653211415 13.217954636 -28.577829361 -0.31805798411
          -0.1724806875 -4.1333589554 0.091581687331 -1.9889165163 -19.642177582 -3.2557795748e-07
          9.6990785599 -28.272794724 -0.61061322689 -2.497095108 -17.801584244 -4.9287444881e-07
          -1.119843483 -21.781684875 -1.7120443374e-07 16.762342453 -28.905288696 2.1026349373e-07
          0 0 0 -0.31045016646 -8.7243900299 0.28914651275
          9.7071456909 -28.284772873 -0.30420964956 13.221027374 -28.582838058 1.851806104e-07
          -2.8076252937 -15.158624649 1.4839911461 -0.25583687425 -21.262704849 0.91227811575
          -0.21015304327 -4.1658349037 -9.8340728982e-07 -0.5604711771 -9.139046669 0.23327386379
          5.3537111282 -24.498605728 0.61146897078 -0.94246685505 -11.849647522 0.83041363955
          -1.1350052357 -16.846717834 -0.50773704052 0.44489213824 -24.619544983 -0.86646801233
          -1.238915205 -17.488414764 0.090943425894 2.4597802162 -24.374492645 0.33862125874
          -1.4937361479 -17.284294128 -0.29860213399 0.49475082755 -24.534368515 -0.42322379351
          -2.0437726974 -19.64484787 0.64730030298 9.7105836868 -28.287750244 1.5713820289e-07
          -0.65112018585 -9.6927108765 -2.6363247798e-06 6.2661643028 -28.032699585 -0.60265183449
          -2.5224838257 -17.806623459 0.71998512745 -1.1511346102 -21.794902802 0.54512274265
          16.759321213 -28.899332047 0.33269101381 0 0 0
          -0.15387628973 -13.139878273 0.38042595983 6.2768082619 -28.029684067 -0.30049976707
          13.217954636 -28.577829361 0.31805837154 -1.1708495617 -17.348220825 0.035955816507
          -1.5425944328 -17.3478508 -7.3115023724e-07 0.51650601625 -24.523815155 -3.2793856519e-08
          -0.17248013616 -4.1333589554 -0.091583520174 9.7071456909 -28.284772873 0.30420997739
          6.2809448242 -28.030910492 1.2480795419e-07 -1.1761223078 -17.475791931 -3.0940998386e-06
          2.4386274815 -24.424312592 0.68740713596 -1.674139142 -22.684259415 -1.1942505836
          -0.56046772003 -9.1390476227 -0.23327678442 -0.91969233751 -17.332954407 0.081736721098
          -2.1888833046 -20.811208725 -1.3671667576 -1.5651586056 -22.651222229 -0.59716933966
          -2.1531124115 -19.695207596 1.2959070206 -2.0909190178 -20.783601761 -0.66990238428
          -1.4937357903 -17.284294128 0.29860064387 0.49475088716 -24.534368515 0.4232237339
          -1.2246034145 -21.878320694 1.1004118919 -2.59842062 -17.809537888 1.4141398668
          -0.0016895661829 -16.707128525 -0.19737400115 3.2649018764 -27.917322159 -0.66214811802
          16.75123024 -28.879825592 0.66730099916 0 0 0
          13.209988594 -28.558765411 0.63915586472 -1.1477689743 -17.36756134 0.064923577011
          -1.5244828463 -22.641918182 -2.5816470384e-07 -2.1223325729 -18.275276184 -0.89793384075
          -0.60146194696 -25.061857224 -1.0071359873 3.2895925045 -27.879131317 -0.32638177276
          -0.2013104558 -3.9456996918 -0.16653327644 -2.0738828182 -20.758281708 -4.2940743583e-07
          6.2768087387 -28.029684067 0.30050000548 -1.1708415747 -17.348220825 -0.03596381098
          -0.53331565857 -24.991584778 -0.50219869614 -2.2443227768 -18.488950729 -0.57707291842
          9.6990795135 -28.272794724 0.61061352491 -1.1643742323 -17.438995361 -8.0784343481e-07
          3.2984447479 -27.877672195 8.7673825533e-08 -0.31044894457 -8.7243900299 -0.28914868832
          -0.51714533567 -24.967624664 -1.0040989906e-07 17.85905838 -32.455287933 -0.66225498915
          0 0 0 -2.2538793087 -18.553552628 -6.3975619469e-07
          17.862792969 -32.47624588 -0.33035665751 0 0 0
          -1.5651583672 -22.651222229 0.59716886282 14.265465736 -32.135738373 -0.6326495409
          -1.1350046396 -16.846717834 0.5077354908 0.44489231706 -24.619543076 0.86646795273
          -0.43646532297 -4.0596442223 0.35708996654 -2.090918541 -20.783601761 0.66990154982
          14.269817352 -32.156158447 -0.31520184875 -0.31895264983 -4.2036132812 0.20945909619
          6.2661647797 -28.032697678 0.60265207291 17.865119934 -32.482753754 2.4683117772e-07
          -1.1477605104 -17.367557526 -0.064925052226 10.683135986 -31.845954895 -0.60328632593
          -0.37969264388 -8.2824277878 0.72998547554 3.2895925045 -27.879131317 0.32638195157
          0 0 0 1.2238026857 -28.012722015 -0.80379742384
          0.022080114111 -18.304014206 -0.0080202808604 -0.1538746655 -13.139879227 -0.3804269731
          -0.51799577475 -8.5662851334 0.47682020068 10.690275192 -31.860887527 -0.30073550344
          14.271844864 -32.161907196 2.3144723116e-07 -0.53331547976 -24.991584778 0.50219851732
          0.024671204388 -18.743890762 -0.003583941143 1.2788106203 -27.951875687 -0.39481857419
          -2.2443223 -18.488948822 0.57707160711 -0.33480879664 -4.2645888329 -1.0321700756e-06
          -1.7125771046 -23.576181412 -1.1981297731 10.693118095 -31.865047455 2.1319567622e-07
          -1.6741387844 -22.684259415 1.1942501068 -0.62634176016 -8.9355993271 -1.450206355e-06
          0.024815870449 -18.873023987 -9.4009493523e-07 -1.5994309187 -23.615461349 -0.59469890594
          1.2983373404 -27.945800781 4.1044600607e-08 -2.1888828278 -20.811208725 1.3671659231
          17.862792969 -32.47624588 0.33035716414 7.1834793091 -31.594600677 -0.58946746588
          -1.6064481735 -22.163675308 -1.3099117279 0 0 0
          0.73923480511 -12.113866806 0.89980334044 -1.1119896173 -25.596849442 -1.0498178005
          0.34842720628 -15.915730476 0.31311792135 7.1950016022 -31.597839355 -0.29407888651
          14.269817352 -32.156158447 0.31520229578 -1.5141245127 -22.225664139 -0.61146479845
          -1.0014560223 -25.597648621 -0.53319305182 -0.3189522624 -4.2036132812 -0.20946073532
          -0.0016881957417 -16.707128525 0.19737020135 3.2649021149 -27.917322159 0.66214829683
          -1.5965195894 -23.597637177 -3.4600722643e-07 -2.1223316193 -18.275274277 0.89793235064
          -0.60146164894 -25.061857224 1.0071357489 7.1986713409 -31.60062027 1.9089961256e-07
          10.690276146 -31.860887527 0.30073592067 -1.5813314915 -22.124742508 -5.3373190667e-07
          -0.51799470186 -8.5662841797 -0.47682380676 0.33000692725 -16.921571732 -4.5617912292e-06
          0.024671798572 -18.743890762 0.0035820719786 1.2788107395 -27.951875687 0.3948186636
          -0.96964985132 -25.589006424 -1.7054924228e-07 0.090488538146 -28.24760437 -0.89532339573
          0.016664292663 -17.242263794 -0.0034685053397 0.16670759022 -28.222171783 -0.45192289352
          0.016720792279 -17.644510269 -0.0045101433061 17.85905838 -32.455287933 0.66225546598
          0 0 0 -1.5994305611 -23.615461349 0.59469825029
          0.98758471012 -17.380235672 0.076449371874 4.110804081 -31.436410904 -0.62736153603
          1.3040347099 -17.542007446 0.08638510108 14.26546669 -32.135738373 0.63265001774
          -0.43646541238 -4.0596442223 -0.35709139705 4.1379542351 -31.413276672 -0.3103749156
          7.1950016022 -31.597839355 0.29407927394 -1.5141240358 -22.225664139 0.61146372557
          0.34843021631 -15.915742874 -0.31311959028 -1.0014557838 -25.597648621 0.53319269419
          0.18470092118 -28.218549728 -1.2459381082e-08 0.016399934888 -17.735908508 -6.6423200451e-07
          10.683135986 -31.845954895 0.60328674316 -0.3796916008 -8.2824287415 -0.72998780012
          1.2238029242 -28.012720108 0.80379748344 1.3303506374 -17.636405945 -1.1757101674e-06
          0.022081255913 -18.304014206 0.0080183884129 4.1461811066 -31.414112091 1.6387426172e-07
          18.964559555 -36.06949234 -0.66467916965 0 0 0
          -1.7125765085 -23.576181412 1.1981290579 0.16670775414 -28.222171783 0.45192286372
          0 0 0 15.315051079 -35.748550415 -0.63007885218
          -1.2056065798 -24.377752304 -0.91408699751 0.016721393913 -17.644508362 0.0045087942854
          -0.11423557997 -4.2104978561 0.3772161901 -1.1646986008 -26.116550446 -0.95482218266
          18.965358734 -36.094417572 -0.33171701431 7.1834793091 -31.594600677 0.58946782351
          15.317001343 -35.772922516 -0.31427291036 0.018697030842 -4.1460967064 0.23917496204
          -1.6064473391 -22.163675308 1.309910655 -1.109820962 -24.601484299 -0.4513643086
          0.73923617601 -12.113865852 -0.89980572462 2.0328247547 -31.427019119 -0.72365063429
          1.304035306 -17.542007446 -0.086387455463 -1.1119891405 -25.596849442 1.0498175621
          1.2005037069 -16.87877655 0.49519580603 4.1379542351 -31.413276672 0.31037524343
          -1.0568193197 -26.230508804 -0.48750293255 1.5554537773 -17.313526154 0.29244551063
          2.0898914337 -31.391489029 -0.35769385099 11.663881302 -35.454406738 -0.5961369276
          18.96723175 -36.102298737 2.9084623066e-07 -0.1782450527 -7.2372913361 0.91261559725
          0 0 0 11.670279503 -35.47480011 -0.2973716259
          -0.19925934076 -7.6447119713 0.56720656157 15.318304062 -35.780235291 2.8639686889e-07
          -0.44552737474 -28.542133331 -0.88654410839 -1.1575362682 -24.576953888 -4.263881408e-07
          -1.0569368601 -26.243057251 -2.3587048759e-07 0.028806267306 -23.061580658 -0.02285823971
          -0.05012286827 -4.0382847786 -8.561866025e-07 -0.33274653554 -28.597215652 -0.44875836372
          2.106682539 -31.38983345 1.2954181727e-07 0.032145693898 -23.527935028 -0.010882689618
          1.6056610346 -17.376171112 -9.5175550996e-07 0.090488895774 -28.24760437 0.89532339573
          11.672581673 -35.480957031 2.7908603784e-07 0.016665404662 -17.242261887 0.0034672142938
          0.023294782266 -7.9826159477 -1.4706388356e-06 8.0990819931 -35.193332672 -0.57310819626
          18.965358734 -36.094417572 0.33171758056 -0.30092668533 -28.615093231 -6.4175168291e-08
          0.91603565216 -9.4258623123 2.14813447 0.98758590221 -17.380235672 -0.076451726258
          0.031244773418 -23.45186615 -6.814255471e-07 4.110804081 -31.436410904 0.62736183405
          0 0 0 8.1109619141 -35.205219269 -0.28615829349
          0.87213224173 -10.448796272 0.64449942112 15.317001343 -35.772922516 0.3142735064
          -1.1098204851 -24.601484299 0.45136344433 -1.0568189621 -26.230508804 0.48750248551
          0.018697304651 -4.1460971832 -0.23917658627 2.0898916721 -31.391489029 0.35769411922
          1.5554543734 -17.313526154 -0.29244738817 11.670279503 -35.47480011 0.29737219214
          8.114151001 -35.210391998 2.67915226e-07 0.85745662451 -31.50243187 -0.77186268568
          2.1861279011 -18.276493073 0.87707316875 1.0396339893 -11.660921097 2.4189864689e-07
          -0.19926008582 -7.6447124481 -0.56720942259 2.3123483658 -18.498819351 0.57073456049
          -0.33274626732 -28.597215652 0.44875824451 0.93506425619 -31.502565384 -0.387955755
          0.032146260142 -23.527935028 0.010881304741 4.9691152573 -34.994884491 -0.58820044994
          18.964559555 -36.06949234 0.6646797657 0 0 0
          2.4647004604 -17.812149048 0.065235123038 4.9968972206 -34.988441467 -0.29145827889
          15.315051079 -35.748550415 0.63007944822 3.0588710308 -18.193651199 0.1910212189