<?xml version="1.0"?>
<VTKFile type="UnstructuredGrid" version="0.1" byte_order="LittleEndian" header_type="UInt32" compressor="vtkZLibDataCompressor">
  <UnstructuredGrid>
    <Piece NumberOfPoints="6405" NumberOfCells="4800">
      <PointData>
        <DataArray type="Float32" Name="DISPLACEMENT" NumberOfComponents="3" ComponentName0="X-DISPLACEMENT" ComponentName1="Y-DISPLACEMENT" ComponentName2="Z-DISPLACEMENT" format="ascii" RangeMin="0" RangeMax="358.40246698">
          0 0 0 0 0 0
          2.727142334 -1.5686571598 -1.2591365576 0 0 0
          1.5767103434 -0.87831574678 -0.85319030285 0 0 0
          2.507881403 -1.8082107306 -0.49682807922 1.3713108301 -1.0874388218 -0.34693291783
          0 0 0 4.965982914 -3.2574794292 -1.2888734341
          0 0 0 4.9038519859 -3.5383398533 -0.65584468842
          3.1831290722 -2.7166483402 -0.94579041004 0 0 0
          0 0 0 2.5240671635 -1.8780897856 2.5207645749e-08
          0.88891947269 -0.57327640057 -0.49247303605 1.3642519712 -1.1253038645 8.5934575011e-09
          3.1127882004 -2.9545912743 -0.480550915 0.76497250795 -0.78381496668 -0.20291592181
          4.8525509834 -3.6149852276 4.7426226502e-08 1.7285431623 -2.3432617188 -0.57528817654
          0 0 0 3.0701553822 -3.025131464 1.7355556992e-08
          1.6422276497 -2.5648651123 -0.29669997096 0 0 0
          6.9629397392 -5.6516652107 -1.1869665384 0 0 0
          0.75850057602 -0.81829106808 -1.0228309755e-08 0 0 0
          0 0 0 2.507881403 -1.8082107306 0.49682813883
          4.6661229134 -5.1594834328 -0.91050720215 6.9847111702 -5.8598189354 -0.59980338812
          -0.04889723286 -0.50094395876 -0.083698138595 1.3713108301 -1.0874388218 0.34693291783
          4.6758904457 -5.3548078537 -0.4617843926 -0.14361286163 -0.73786103725 -0.060375519097
          1.6065200567 -2.6256947517 -1.4031245499e-08 4.9038519859 -3.5383396149 0.65584474802
          0 0 0 0 0 0
          0.047785595059 -2.1894600391 -0.24075034261 2.6710026264 -4.8320980072 -0.6441321373
          6.9627256393 -5.9291644096 6.9503570899e-08 3.1127882004 -2.9545912743 0.48055097461
          2.6243069172 -5.0080566406 -0.32685062289 0.76497250795 -0.78381490707 0.20291590691
          4.6623005867 -5.4152421951 2.8438641664e-08 -0.047284502536 -2.4046196938 -0.13512690365
          -0.16863484681 -0.78535014391 -3.7706520573e-08 0 0 0
          8.7361679077 -8.4660739899 -1.0297765732 0 0 0
          6.0648999214 -8.031247139 -0.84685367346 1.6422276497 -2.5648648739 0.29669994116
          8.7845993042 -8.6054010391 -0.5195505023 2.727142334 -1.5686571598 1.2591366768
          0 0 0 0 0 0
          -0.070922546089 -2.4670562744 -4.6251507513e-08 2.606951952 -5.0621466637 -1.1243449727e-08
          -1.344081521 -0.6473531723 0.0081423744559 6.099832058 -8.1649007797 -0.42546877265
          1.5767103434 -0.87831562757 0.85319030285 0.48802542686 -4.6470832825 -0.42051413655
          0 0 0 6.9847111702 -5.8598189354 0.59980356693
          -1.5114046335 -0.76662623882 0.02733633481 0.41512566805 -4.8012194633 -0.2131370008
          4.6758904457 -5.3548078537 0.4617844522 -0.14361283183 -0.73786097765 0.060375452042
          3.6648015976 -7.728729248 -0.67299002409 -1.3373590708 -2.4587595463 -0.22179663181
          8.7785682678 -8.6518669128 8.8946244148e-08 4.9659833908 -3.2574794292 1.2888735533
          0 0 0 0 0 0
          3.64747262 -7.8439412117 -0.33899405599 3.1831290722 -2.7166483402 0.94579046965
          6.1024713516 -8.2082147598 3.9960159626e-08 -1.445956111 -2.5611023903 -0.072641663253
          0.88891947269 -0.57327628136 0.49247303605 -1.5417073965 -0.83423227072 -7.3072122575e-08
          0.40191835165 -4.852101326 -5.628808708e-08 2.6243069172 -5.0080561638 0.32685059309
          -0.047284469008 -2.4046196938 0.13512681425 3.6411631107 -7.8825097084 -8.6413338707e-09
          1.7285431623 -2.3432617188 0.57528811693 -1.4587447643 -2.637213707 -9.2702329368e-08
          1.1963025331 -7.5407524109 -0.54849404097 8.7845993042 -8.6054010391 0.51955068111
          6.9629397392 -5.6516647339 1.1869666576 0 0 0
          10.291649818 -11.528439522 -0.89575326443 0 0 0
          0 0 0 -1.1828989983 -4.724193573 -0.35840761662
          1.1491622925 -7.627617836 -0.27249705791 10.340119362 -11.612711906 -0.44978407025
          7.3752932549 -11.13519001 -0.78421020508 6.099832058 -8.1649007797 0.42546886206
          -2.3982615471 -0.96643042564 -0.1180023849 0 0 0
          4.6661229134 -5.1594834328 0.91050726175 -0.048897210509 -0.50094389915 0.083698086441
          -1.2756849527 -4.8077311516 -0.16213530302 -1.5114046335 -0.76662611961 -0.027336480096
          -2.757661581 -0.85130256414 0.088412456214 0.41512566805 -4.8012194633 0.21313688159
          7.4137434959 -11.217903137 -0.39157184958 3.64747262 -7.8439412117 0.33899402618
          1.1407380104 -7.6616501808 -6.4267119626e-08 10.342333794 -11.641535759 1.0593516464e-07
          -2.2333641052 -2.8866939545 -0.57789051533 -1.445956111 -2.5611023903 0.072641476989
          0 0 0 4.6909475327 -10.842995644 -0.67832314968
          0.047785628587 -2.1894600391 0.2407502383 2.6710026264 -4.8320975304 0.6441321373
          -1.2890468836 -4.8545680046 -1.0826646957e-07 7.4218244553 -11.244684219 5.2752540114e-08
          -2.2891483307 -1.0961859226 2.3822517505e-06 -2.3363246918 -2.8079342842 -0.21887101233
          4.6915926933 -10.909490585 -0.33959519863 8.7361679077 -8.4660739899 1.0297768116
          0 0 0 -0.75106352568 -7.5673251152 -0.53074741364
          6.0648999214 -8.031247139 0.84685373306 -2.2784163952 -2.9070644379 -1.3126090437e-07
          -0.82457357645 -7.5933890343 -0.25679093599 4.691783905 -10.93229866 -1.2022357554e-09
          -1.3440816402 -0.64735293388 -0.0081425243989 1.1491622925 -7.6276173592 0.27249693871
          2.0145077705 -10.652265549 -0.61600065231 10.340119362 -11.612710953 0.44978430867
          -1.7640949488 -5.7042007446 -0.79798734188 0.48802542686 -4.6470832825 0.42051398754
          0 0 0 -1.2756849527 -4.8077311516 0.1621350795
          1.9911062717 -10.689389229 -0.30760627985 -2.757661581 -0.85130250454 -0.088412806392
          -1.7990951538 -5.5888299942 -0.34693649411 7.4137434959 -11.217902184 0.39157193899
          3.6648015976 -7.728729248 0.67298996449 -1.3373590708 -2.4587593079 0.2217964381
          11.671459198 -14.714686394 -0.79532259703 0 0 0
          -0.82900238037 -7.6197571754 -1.2414702155e-07 8.6053371429 -14.352479935 -0.73094248772
          11.711781502 -14.762849808 -0.39820095897 0 0 0
          -0.52910190821 -1.8157964945 0.15857641399 8.6393537521 -14.400306702 -0.36380165815
          1.9871417284 -10.70836544 -6.25685459e-08 -0.54263943434 -1.8435288668 0.032652851194
          -2.3363242149 -2.8079345226 0.21887077391 -1.767541647 -5.6020994186 -6.6909599639e-08
          4.6915926933 -10.909490585 0.33959519863 5.7238373756 -14.066102028 -0.66819292307
          -1.500190258 -3.4928359985 -0.082833692431 11.717137337 -14.779346466 1.220276431e-07
          0 0 0 -1.7264595032 -3.5888907909 -0.11655575037
          5.7343316078 -14.100262642 -0.33353555202 8.6483469009 -14.415332794 6.8867564096e-08
          -0.6432236433 -1.8363236189 -2.6808450571e-07 1.1963025331 -7.5407524109 0.54849386215
          -0.15041160583 -10.700566292 -0.67942744493 10.291649818 -11.528438568 0.89575344324
          0 0 0 -1.5735667944 -8.284620285 -0.94152742624
          -0.82457357645 -7.5933890343 0.25679066777 -1.1828989983 -4.7241930962 0.3584073782
          7.3752932549 -11.13519001 0.78421032429 -2.3982613087 -0.96643024683 0.11800221354
          -1.6017452478 -8.1319055557 -0.41331961751 -0.18776386976 -10.676121712 -0.32881689072
          1.9911062717 -10.689389229 0.30760613084 -1.7990951538 -5.5888295174 0.3469362855
          5.7378611565 -14.111642838 1.3970093526e-08 -1.6938199997 -3.6078732014 -1.1344505779e-08
          2.8850600719 -13.869041443 -0.64388036728 -2.6017816067 -6.2739748955 -1.0488835573
          -2.2333636284 -2.8866944313 0.57789039612 11.711781502 -14.762849808 0.39820119739
          4.6909475327 -10.842995644 0.67832314968 0 0 0
          -0.18470068276 -10.694205284 -1.3140768829e-07 -1.5653848648 -8.1580762863 -1.8275889602e-07
          2.8812134266 -13.875607491 -0.321729213 8.6393537521 -14.400306702 0.36380177736
          -2.5972542763 -6.0996527672 -0.53453481197 -0.54263949394 -1.8435283899 -0.032652549446
          -0.75106352568 -7.5673251152 0.53074711561 2.8814356327 -13.883710861 -4.812824983e-08
          5.7343316078 -14.100262642 0.33353558183 -1.7264597416 -3.5888907909 0.11655560881
          -2.5949840546 -6.0486001968 -2.2794687027e-07 12.923177719 -17.958456039 -0.7257053256
          0 0 0 12.954031944 -17.985479355 -0.36258214712
          2.0145077705 -10.652265549 0.6160005331 9.7671136856 -17.618307114 -0.68853002787
          -1.7640949488 -5.7042002678 0.79798686504 -1.1134396791 -11.370967865 -0.97611641884
          -0.39574670792 -2.242978096 0.13481621444 -1.6017452478 -8.1319055557 0.41331923008
          -0.18776389956 -10.676121712 0.3288166225 0 0 0
          9.7945127487 -17.645404816 -0.34227600694 -1.0688177347 -11.284327507 -0.46042868495
          -0.44610202312 -2.2660300732 0.060478597879 0.54874694347 -13.902874947 -0.73688179255
          -1.9951375723 -9.2330303192 -1.0425617695 11.671459198 -14.714686394 0.79532283545
          0 0 0 8.6053371429 -14.352478981 0.73094260693
          12.960148811 -17.994577408 1.3923411757e-07 -1.9585818052 -9.195813179 -0.54548114538
          0.54376536608 -13.852905273 -0.35973474383 -0.52910208702 -1.8157964945 -0.15857645869
          6.7488312721 -17.334220886 -0.65056449175 -1.0012392998 -4.4799046516 -0.049213938415
          0 0 0 2.8812134266 -13.875607491 0.32172912359
          -2.5972547531 -6.0996522903 0.53453421593 9.8026218414 -17.653226852 8.9947079118e-08
          -1.0162855387 -11.322383881 -2.2502712227e-07 6.7636127472 -17.350196838 -0.32418677211
          -1.1064767838 -4.5328192711 -0.0057721547782 -0.45322418213 -2.2840890884 -9.2672571839e-08
          5.7238373756 -14.066101074 0.66819292307 -1.5001906157 -3.4928357601 0.082833312452
          0.54816734791 -13.859347343 -1.2117303072e-07 -1.8961549997 -9.194486618 -4.8106142003e-07
          -0.15041163564 -10.700566292 0.67942714691 6.7686872482 -17.354719162 3.8331307906e-08
          -1.152585268 -4.5509538651 -2.9524855449e-07 -1.5735667944 -8.2846193314 0.94152694941
          12.954031944 -17.985479355 0.36258241534 3.7869727612 -17.122524261 -0.64323759079
          0 0 0 -1.7210296392 -6.851773262 -0.12052275985
          3.7950453758 -17.115312576 -0.32153603435 9.7945127487 -17.645404816 0.34227618575
          -0.44610208273 -2.2660300732 -0.060478851199 -1.0688176155 -11.284327507 0.46042823792
          -1.9502718449 -7.0180630684 -0.2004570961 2.8850600719 -13.869040489 0.64388024807
          -0.66782784462 -14.428553581 -0.96377843618 0.54376536608 -13.852905273 0.35973447561
          -2.6017823219 -6.2739739418 1.0488826036 -1.9585824013 -9.1958122253 0.54548025131
          -1.7345284224 -12.205109596 -1.1447060108 -0.62274414301 -14.348321915 -0.46692073345
          3.7979252338 -17.11687851 -2.0300182868e-08 6.7636127472 -17.350196838 0.32418683171
          -1.1064767838 -4.5328192711 0.0057715876028 -1.6554498672 -12.132608414 -0.58364778757
          -1.9459756613 -6.9904966354 -5.3766234487e-07 14.087515831 -21.227790833 -0.68016976118
          0 0 0 -0.25816592574 -2.5505871773 0.095333278179
          -0.58780676126 -14.365494728 -2.1781816884e-07 1.2916828394 -17.110815048 -0.73139238358
          10.875084877 -20.902618408 -0.6566298604 12.923178673 -17.958456039 0.72570562363
          0 0 0 0 0 0
          -1.5954144001 -12.142940521 -3.8917104916e-07 -3.0790159702 -9.8643913269 -1.0766810179
          14.10976696 -21.244169235 -0.33940625191 1.3050240278 -17.055738449 -0.36045584083
          10.895785332 -20.919107437 -0.32636472583 9.7671136856 -17.618307114 0.68853020668
          -0.26909852028 -2.5495052338 0.046943824738 -1.1134394407 -11.370966911 0.976115942
          -0.39574691653 -2.2429778576 -0.13481636345 -3.0467448235 -9.8092060089 -0.59024012089
          3.7950456142 -17.115312576 0.32153600454 -1.9502718449 -7.0180625916 0.20045605302
          7.7609071732 -20.619215012 -0.63115531206 0.54874694347 -13.902873993 0.73688155413
          -1.9951382875 -9.2330284119 1.0425610542 0 0 0
          -0.63217699528 -5.0350465775 0.051269710064 14.11551857 -21.249429703 1.5958438837e-07
          -0.28597274423 -2.5624029636 -1.9776899762e-07 1.3117762804 -17.054868698 -9.0780766016e-08
          7.7761359215 -20.626775742 -0.31424057484 6.7488312721 -17.334220886 0.65056461096
          10.902449608 -20.92323494 1.1755512475e-07 -1.0012395382 -4.4799041748 0.049213398248
          -3.005959034 -9.7901239395 -9.3934124834e-07 -0.71344149113 -5.0770769119 0.027069767937
          -0.6227440834 -14.348321915 0.46692031622 -1.655449748 -12.132608414 0.58364701271
          -1.2912298441 -15.2973423 -1.1275068521 7.7815303802 -20.628015518 7.2855186772e-08
          -0.73258322477 -5.0934028625 -4.3658997129e-07 -1.1907315254 -15.275138855 -0.556650877
          4.7031393051 -20.393400192 -0.62980043888 0 0 0
          -1.1689778566 -7.7365903854 -0.11412332952 14.10976696 -21.244169235 0.33940657973
          -0.26909855008 -2.5495049953 -0.046944186091 1.3050240278 -17.055738449 0.36045566201
          4.716129303 -20.381830215 -0.31469580531 3.7869727612 -17.122524261 0.64323753119
          10.895785332 -20.919107437 0.32636496425 -0.13642966747 -17.509363174 -0.93115025759
          -2.476982832 -12.691514969 -1.1291126013 -1.7210297585 -6.8517727852 0.12052185833
          -1.2737368345 -7.8111753464 -0.041749477386 -3.046744585 -9.8092050552 0.59023851156
          -0.10063770413 -17.419811249 -0.45542398095 -2.3776409626 -12.754975319 -0.56912428141
          -1.1207969189 -15.31018734 -3.428453681e-07 -0.66782766581 -14.428553581 0.96377801895
          7.7761359215 -20.626775742 0.31424072385 -1.7345283031 -12.205109596 1.1447054148
          4.7205629349 -20.380584717 2.1425030639e-08 -0.71344149113 -5.0770769119 -0.027070622891
          -1.3242137432 -7.8533129692 -6.9835783734e-07 -0.079116515815 -17.412981033 -1.7870580393e-07
          -2.2956750393 -12.808418274 -6.0831666815e-07 -1.760102272 -10.552373886 -0.11911383271
          2.0668509007 -20.338636398 -0.70971590281 14.087515831 -21.227788925 0.68017011881
          0 0 0 -1.190731287 -15.275138855 0.55665022135
          -0.25816613436 -2.5505871773 -0.095333680511 -1.9678229094 -10.730211258 -0.22152730823
          1.2916828394 -17.110815048 0.73139220476 10.875084877 -20.902618408 0.65663009882
          2.0867593288 -20.285177231 -0.35163322091 15.19575119 -24.510765076 -0.6526312232
          0 0 0 -3.079015255 -9.8643903732 1.0766801834
          15.210860252 -24.52337265 -0.32548952103 -0.12080844492 -2.7184095383 0.048001874238
          11.942980766 -24.195390701 -0.63396340609 4.716129303 -20.381830215 0.31469583511
          0 0 0 -1.2737367153 -7.8111753464 0.041748147458
          11.957765579 -24.207958221 -0.31521889567 -0.12731471658 -2.7080886364 0.023820215836
          -0.10063759983 -17.419811249 0.45542365313 -2.3776402473 -12.754975319 0.56912308931
          7.7609071732 -20.619215012 0.63115549088 -1.9658263922 -10.747526169 -8.2671778046e-07
          2.0957100391 -20.282442093 -4.1304460296e-08 -0.6321772337 -5.0350461006 -0.051270511001
          -0.86965376139 -18.198535919 -1.062790513 -0.29510697722 -5.3791742325 0.019895464182
          8.7565546036 -23.913272858 -0.6133660078 -1.6192889214 -16.23991394 -1.0880759954
          15.215819359 -24.52721405 1.8451470396e-07 0 0 0
          -0.80061781406 -18.142024994 -0.53018462658 11.962924004 -24.210775375 1.5264477327e-07
          -0.13337105513 -2.7154564857 -2.4349807859e-07 8.770406723 -23.918340683 -0.30529338121
          -0.32844460011 -5.3887324333 0.019434643909 -1.5741477013 -16.251873016 -0.55237168074
          -1.2912294865 -15.2973423 1.1275062561 -0.751521945 -18.136152267 -2.8206312663e-07
          -3.4427685738 -13.343867302 -1.0181760788 -1.9678227901 -10.730211258 0.2215257138
          0.48185071349 -20.625850677 -0.90263342857 8.7754440308 -23.918621063 1.1798283595e-07
          4.7031393051 -20.393400192 0.62980049849 2.0867593288 -20.285177231 0.3516331315
          -1.5433350801 -16.256456375 -4.8509434691e-07 -0.34258794785 -5.4060349464 -5.2851896726e-07
          -1.1689779758 -7.7365899086 0.11412212998 15.210860252 -24.52337265 0.32548987865
          5.6224226952 -23.678308487 -0.61268031597 -3.437895298 -13.416296959 -0.49540513754
          -0.46346488595 -8.1232442856 -0.035403963178 0.51955729723 -20.546087265 -0.44312441349
          -0.13642945886 -17.509363174 0.93114995956 -2.4769816399 -12.691515923 1.1291116476
          0 0 0 -0.54414093494 -8.1891584396 -0.016203165054
          11.957765579 -24.207958221 0.3152191937 -0.12731473148 -2.708088398 -0.023820690811
          5.6367630959 -23.667066574 -0.3061017096 -3.454556942 -13.435772896 -6.4954247136e-07
          0.54291844368 -20.543876648 -1.1824310064e-07 -0.80061763525 -18.142023087 0.53018403053
          5.6417412758 -23.665397644 7.7033760704e-08 -0.5619520545 -8.2205944061 -7.8928917446e-07
          8.770406723 -23.918340683 0.30529361963 -0.32844460011 -5.3887324333 -0.019435683265
          -1.5741473436 -16.251873016 0.55237072706 -1.7601020336 -10.552372932 0.1191124469
          2.0668509007 -20.338636398 0.7097157836 2.8636405468 -23.588287354 -0.68661278486
          15.19575119 -24.510765076 0.65263164043 0 0 0
          -0.56029969454 -11.208925247 -0.23819075525 -0.12080869079 -2.7184095383 -0.048002358526
          11.94298172 -24.195390701 0.63396376371 -3.4378948212 -13.416296959 0.49540391564
          0.51955741644 -20.546087265 0.44312417507 2.8870589733 -23.538021088 -0.33992499113
          -1.2873270512 -19.032985687 -1.1002106667 -0.66901433468 -11.347222328 -0.11970188469
          -0.54414087534 -8.189157486 0.016201626509 5.6367630959 -23.667066574 0.30610188842
          -1.2479813099 -18.999046326 -0.56499361992 -0.36990594864 -21.185958862 -1.0377758741
          -2.8669626713 -16.514287949 -0.99514293671 16.27126503 -27.806642532 -0.63839834929
          0 0 0 12.982185364 -27.49713707 -0.61878114939
          -0.86965334415 -18.198535919 1.0627900362 -0.29510727525 -5.3791737556 -0.019896447659
          8.7565546036 -23.91327095 0.61336624622 -2.891377449 -16.520570755 -0.53592431545
          -0.30718800426 -21.138235092 -0.51530283689 -1.6192882061 -16.23991394 1.0880750418
          16.280748367 -27.820045471 -0.31838712096 0 0 0
          -0.6649441123 -11.421195984 -9.4460170885e-07 2.8978507519 -23.535055161 2.5608288823e-08
          0.010276644491 -2.777487278 -0.0081413201988 12.992209435 -27.510269165 -0.3078776598
          0.0083200791851 -2.7614235878 -0.0033796548378 -1.2156633139 -18.992916107 -3.9609247438e-07
          9.7345304489 -27.216686249 -0.59782147408 -2.867333889 -16.511447906 -5.8904481648e-07
          -0.26572868228 -21.141712189 -2.0669803291e-07 16.284885406 -27.824090958 2.1488865798e-07
          0 0 0 0.018416849896 -5.4720478058 -0.0092522762716
          9.7468481064 -27.223180771 -0.29763928056 12.99605751 -27.513366699 1.9569742449e-07
          -3.4427680969 -13.343867302 1.0181746483 0.48185095191 -20.625850677 0.90263324976
          0.008545525372 -2.7677667141 -2.783705213e-07 0.018375819549 -5.4774169922 -0.0047173947096
          5.6224226952 -23.678308487 0.61268043518 -0.46346503496 -8.1232442856 0.035402543843
          -0.49919050932 -14.499564171 -0.6742477417 1.1924849749 -23.809402466 -0.87769752741
          -0.66901415586 -11.347222328 0.11970004439 2.8870589733 -23.538021088 0.33992502093
          -0.60705965757 -14.717898369 -0.2523009181 1.2302211523 -23.727010727 -0.42642807961
          -1.2479809523 -18.999046326 0.56499284506 9.7513275146 -27.224039078 1.7377701056e-07
          0.018051749095 -5.4897918701 -5.9202238845e-07 6.5342645645 -26.97649765 -0.59436768293
          -2.8913769722 -16.520570755 0.53592312336 -0.30718776584 -21.138235092 0.51530241966
          16.280748367 -27.820045471 0.318387568 0 0 0
          0.028544485569 -8.2569503784 -0.0077109173872 6.5490255356 -26.968732834 -0.29689663649
          12.992209435 -27.510269165 0.30787804723 0.029746027663 -8.3168287277 -0.0039947037585
          -0.64774131775 -14.767621994 -1.0002311228e-06 1.2481942177 -23.715173721 -3.905579149e-08
          0.0083200642839 -2.7614235878 0.0033791202586 9.7468490601 -27.223180771 0.29763963819
          6.5537967682 -26.968055725 1.4592193054e-07 0.030097121373 -8.347369194 -8.8235390194e-07
          2.8636405468 -23.588287354 0.68661284447 -0.90337878466 -21.965852737 -1.1148364544
          0.018375797197 -5.4774169922 0.0047162291594 -0.56029957533 -11.208925247 0.23818907142
          -2.026907444 -19.710702896 -1.2165366411 -0.83217734098 -21.932409286 -0.55449336767
          -1.2873263359 -19.032985687 1.1002099514 -1.962572813 -19.695304871 -0.60944068432
          -0.60705929995 -14.717898369 0.25229892135 1.2302212715 -23.727010727 0.42642802
          -0.36990553141 -21.185958862 1.0377753973 -2.8669621944 -16.514287949 0.99514174461
          0.039648957551 -11.180468559 -0.0056325541809 3.6808803082 -26.8586483 -0.6608518362
          16.27126503 -27.806642532 0.63839882612 0 0 0
          12.982185364 -27.49713707 0.61878156662 0.04164955765 -11.339669228 -0.0027375048958
          -0.79556781054 -21.93264389 -3.0827587238e-07 -1.5781117678 -21.915126801 -0.23802313209
          0.2345572263 -24.241914749 -0.98920160532 3.7077643871 -26.816127777 -0.32659128308
          0.010276368819 -2.7774870396 0.0081407707185 -1.9167499542 -19.72385025 -5.04240802e-07
          6.5490255356 -26.968732834 0.29689693451 0.029746063054 -8.3168287277 0.003992984537
          0.29123884439 -24.18132782 -0.49412977695 -1.9549655914 -22.569313049 -0.28514781594
          9.7345304489 -27.216686249 0.5978218317 0.042297258973 -11.387537003 -1.0930734788e-06
          3.7189691067 -26.814950943 1.086783854e-07 0.018416533247 -5.4720478058 0.009251174517
          0.31285357475 -24.159477234 -1.1334316952e-07 17.331727982 -31.121551514 -0.63411962986
          0 0 0 -1.9377480745 -22.72650528 -1.0650671811e-06
          17.336950302 -31.139034271 -0.31633794308 0 0 0
          -0.83217698336 -21.932409286 0.55449277163 14.0022192 -30.814624786 -0.60927182436
          -0.49919003248 -14.499563217 0.67424595356 1.1924852133 -23.809402466 0.8776974678
          0.14197063446 -2.7240469456 -0.066047057509 -1.9625724554 -19.695304871 0.60943967104
          14.008690834 -30.831630707 -0.30339619517 0.14471815526 -2.7119381428 -0.031753584743
          6.5342650414 -26.97649765 0.59436798096 17.340435028 -31.144430161 2.5115954827e-07
          0.041649732739 -11.339669228 0.0027353847399 10.694795609 -30.535293579 -0.58384412527
          0.3322302103 -5.3827595711 -0.040335968137 3.7077643871 -26.816127777 0.3265915215
          0 0 0 1.971765399 -26.993169785 -0.83224761486
          0.049864307046 -15.426706314 -0.0039439061657 0.028544308618 -8.2569503784 0.0077093271539
          0.36550962925 -5.3902826309 -0.03047304973 10.706142426 -30.546377182 -0.29084667563
          14.011532784 -30.836168289 2.4694421086e-07 0.29123908281 -24.18132782 0.49412956834
          0.052217409015 -15.809431076 -0.0012223202502 2.0174980164 -26.928869247 -0.40788072348
          -1.9549648762 -22.569313049 0.28514569998 0.14999563992 -2.7192385197 -2.9860964901e-07
          -1.3327809572 -22.919818878 -1.2213639021 10.710163116 -30.548933029 2.4011490041e-07
          -0.90337818861 -21.965852737 1.1148358583 0.38038828969 -5.4076709747 -6.323845696e-07
          0.05334360525 -15.874979019 -1.2145401342e-06 -1.2574412823 -22.87612915 -0.57909876108
          2.0335359573 -26.92175293 5.785828705e-08 -2.0269069672 -19.710702896 1.2165356874
          17.336950302 -31.139034271 0.31633844972 7.4333686829 -30.291440964 -0.57355701923
          -1.7759233713 -20.511846542 -1.3444428444 0 0 0
          0.52023923397 -8.1170797348 0.018883196637 -0.38802319765 -24.792293549 -1.028598547
          0.60471743345 -8.1823387146 0.0079059228301 7.4484901428 -30.290327072 -0.2865613997
          14.008690834 -30.831630707 0.30339670181 -1.7385816574 -20.550739288 -0.66259068251
          -0.29941374063 -24.77838707 -0.51750189066 0.14471815526 -2.7119381428 0.031753011048
          0.039649061859 -11.180468559 0.0056306216866 3.6808805466 -26.8586483 0.66085207462
          -1.267382741 -22.83480072 -4.1032106424e-07 -1.5781103373 -21.915126801 0.23802118003
          0.23455768824 -24.241914749 0.98920142651 7.4526352882 -30.291631699 2.2777646791e-07
          10.706142426 -30.546377182 0.29084718227 -1.7170335054 -20.592340469 -6.3686707108e-07
          0.36550962925 -5.3902826309 0.030471809208 0.62213039398 -8.2140254974 -9.4414690466e-07
          0.052217837423 -15.809431076 0.0012199423509 2.0174980164 -26.928869247 0.40788084269
          -0.27127936482 -24.767681122 -1.9412465235e-07 0.90714597702 -27.241134644 -0.90765947104
          0.067185230553 -22.106870651 0.00058855791576 0.98163616657 -27.218032837 -0.4582516551
          0.065413251519 -22.517875671 -0.00014478807861 17.331727982 -31.121551514 0.6341201663
          0 0 0 -1.2574406862 -22.87612915 0.57909792662
          0.64659881592 -11.198330879 0.22999556363 4.509827137 -30.145889282 -0.62609225512
          0.75804370642 -11.336529732 0.11578600854 14.002220154 -30.814624786 0.6092723012
          0.14197035134 -2.7240469456 0.066046476364 4.5388565063 -30.115175247 -0.3096601069
          7.4484901428 -30.290327072 0.28656184673 -1.7385811806 -20.550739288 0.6625893712
          0.60471749306 -8.1823387146 -0.0079077631235 -0.29941338301 -24.77838707 0.51750147343
          1.007963419 -27.213541031 1.0054443944e-09 0.064543180168 -22.706453323 -1.1491919167e-06
          10.694795609 -30.535291672 0.58384460211 0.33222991228 -5.3827595711 0.040334802121
          1.9717656374 -26.993169785 0.83224773407 0.75426512957 -11.409003258 -1.1762939494e-06
          0.049864880741 -15.42670536 0.0039417864755 4.5485525131 -30.116527557 2.0686505309e-07
          18.391004562 -34.466880798 -0.63742589951 0 0 0
          -1.3327800035 -22.919818878 1.2213630676 0.98163640499 -27.218032837 0.4582516849
          0 0 0 15.010616302 -34.159900665 -0.60383349657
          -0.86014759541 -24.158966064 -1.0465304852 0.065413951874 -22.517875671 0.00014249634114
          0.28322792053 -2.5619945526 -0.11921586096 -0.8036044836 -25.35112381 -0.9923132062
          18.393112183 -34.491054535 -0.31806415319 7.4333686829 -30.291440964 0.57355749607
          15.014577866 -34.183429718 -0.30093318224 0.28692480922 -2.5591039658 -0.059246901423
          -1.7759222984 -20.511846542 1.3444414139 -0.76939952374 -24.254585266 -0.49766927958
          0.52023911476 -8.1170797348 -0.01888487488 2.7938158512 -30.185379028 -0.76328635216
          0.75804400444 -11.336529732 -0.11578828096 -0.3880225718 -24.792293549 1.0285981894
          0.60617792606 -14.494771004 0.66899830103 4.5388569832 -30.115175247 0.30966052413
          -0.71933537722 -25.403829575 -0.49828717113 0.71785360575 -14.71278286 0.25227242708
          2.8511948586 -30.145563126 -0.3752976656 11.638253212 -33.88104248 -0.5704715848
          18.396156311 -34.498672485 2.9358037068e-07 0.67106389999 -5.0447897911 -0.081152886152
          0 0 0 11.649276733 -33.899417877 -0.28433358669
          0.75380724669 -5.0840015411 -0.044196337461 15.01668644 -34.190296173 3.0639691317e-07
          0.26474741101 -27.576873779 -0.89896708727 -0.84764099121 -24.151966095 -5.2623511237e-07
          -0.73495054245 -25.39068985 -2.6597646752e-07 0.068852052093 -20.284927368 -0.0029948565643
          0.31034559011 -2.5747308731 -3.0552180874e-07 0.3572036922 -27.611333847 -0.45198878646
          2.8695793152 -30.144996643 1.7307917233e-07 0.064209386706 -20.763814926 -0.0025719297118
          0.75769370794 -14.7605896 -1.2671868035e-06 0.90714645386 -27.241134644 0.90765953064
          11.653026581 -33.904640198 3.1671078204e-07 0.067186668515 -22.106870651 -0.00059087085538
          0.76867961884 -5.104016304 -6.4136440869e-07 8.3125953674 -33.634979248 -0.54982382059
          18.39311409 -34.491054535 0.31806474924 0.3782325387 -27.616884232 -5.6234977563e-08
          1.2262614965 -7.7225198746 0.095064647496 0.64659911394 -11.198331833 -0.22999763489
          0.063863202929 -20.810583115 -8.3984519961e-07 4.509827137 -30.145889282 0.62609267235
          0 0 0 8.3280601501 -33.643161774 -0.27492561936
          1.3371921778 -7.7968392372 0.029959630221 15.014577866 -34.183429718 0.30093380809
          -0.76939886808 -24.254585266 0.49766820669 -0.71933490038 -25.403829575 0.49828666449
          0.28692480922 -2.5591039658 0.059246320277 2.851195097 -30.145563126 0.37529802322
          0.71785408258 -14.712783813 -0.25227496028 11.649277687 -33.899421692 0.28433421254
          8.331530571 -33.647380829 3.2180338394e-07 1.6754910946 -30.277910233 -0.79853653908
          1.6914403439 -21.886529922 0.25389793515 1.3909746408 -7.8407902718 -9.7036331681e-07
          0.75380730629 -5.0840015411 0.044195078313 2.0677120686 -22.553777695 0.28380122781
          0.35720404983 -27.611333847 0.45198869705 1.7548178434 -30.280399323 -0.40068247914
          0.06421007961 -20.763814926 0.0025702721905 5.3384370804 -33.462966919 -0.58488518
          18.391004562 -34.466880798 0.63742649555 0 0 0
          1.8530685902 -10.512949944 0.11547312886 5.3690404892 -33.445960999 -0.28922089934