<?xml version="1.0"?>
<VTKFile type="UnstructuredGrid" version="0.1" byte_order="LittleEndian" header_type="UInt32" compressor="vtkZLibDataCompressor">
  <UnstructuredGrid>
    <Piece NumberOfPoints="6405" NumberOfCells="4800">
      <PointData>
        <DataArray type="Float32" Name="DISPLACEMENT" NumberOfComponents="3" ComponentName0="X-DISPLACEMENT" ComponentName1="Y-DISPLACEMENT" ComponentName2="Z-DISPLACEMENT" format="ascii" RangeMin="0" RangeMax="273.76066034">
          0 0 0 0 0 0
          2.0919032097 -1.2871242762 -0.96726852655 0 0 0
          1.3442906141 -0.7654067874 -0.74790138006 0 0 0
          1.9114495516 -1.4202297926 -0.38451570272 1.1700085402 -0.8745187521 -0.30455690622
          0 0 0 3.7497324944 -2.3622906208 -0.98957020044
          0 0 0 3.6980690956 -2.5191571712 -0.51074051857
          2.70007658 -1.9430948496 -0.82276916504 0 0 0
          0 0 0 1.9185599089 -1.4653326273 -4.3075095846e-07
          0.98472678661 -0.52780044079 -0.57181704044 1.1656329632 -0.89595228434 -1.8749875608e-07
          2.6451442242 -2.0681965351 -0.42002433538 0.85022711754 -0.62359362841 -0.23279191554
          3.6569521427 -2.5633277893 -9.1781851097e-07 1.9512465 -1.5974555016 -0.64493751526
          0 0 0 2.6096456051 -2.1096236706 -4.704937453e-07
          1.8948885202 -1.7152631283 -0.33035975695 0 0 0
          5.2557172775 -3.7427310944 -0.92520850897 0 0 0
          0.84596341848 -0.64153933525 8.0587717832e-08 0 0 0
          0 0 0 1.9114496708 -1.4202302694 0.38451486826
          3.9730920792 -3.3374171257 -0.7814296484 5.2731142044 -3.8568749428 -0.47169095278
          0.65435272455 -0.34417903423 -0.41355544329 1.1700084209 -0.87451922894 0.30455651879
          3.9875357151 -3.4462025166 -0.39829304814 0.55215775967 -0.44075089693 -0.17477177083
          1.8629080057 -1.749080658 1.4857895358e-08 3.6980688572 -2.5191581249 0.51073867083
          0 0 0 0 0 0
          1.3738086224 -1.3806147575 -0.45679464936 2.9614298344 -3.0018801689 -0.63437247276
          5.2598485947 -3.898193121 -1.4899038661e-06 2.6451439857 -2.0681977272 0.42002338171
          2.9535560608 -3.1084153652 -0.32232746482 0.85022699833 -0.62359422445 0.23279204965
          3.9783520699 -3.4822459221 -8.4515602339e-07 1.3255023956 -1.500862956 -0.22988912463
          0.54343724251 -0.45544528961 4.503193054e-07 0 0 0
          6.6475520134 -5.3128967285 -0.82485795021 0 0 0
          5.1779413223 -4.9468274117 -0.72018653154 1.8948881626 -1.7152642012 0.33035975695
          6.6851158142 -5.3946852684 -0.41764780879 2.0919029713 -1.2871251106 0.96726769209
          0 0 0 0 0 0
          1.2976177931 -1.5316098928 6.108504067e-07 2.9412782192 -3.1389145851 -1.7304559208e-07
          0.45591130853 -0.34923011065 -0.24239629507 5.210252285 -5.0286345482 -0.36296898127
          1.3442901373 -0.76540774107 0.74790090322 2.0569052696 -2.7501831055 -0.46242129803
          0 0 0 5.2731142044 -3.8568763733 0.47168794274
          0.45185360312 -0.47301325202 -0.11419852078 2.0192666054 -2.8578183651 -0.23699346185
          3.9875352383 -3.4462039471 0.39829134941 0.55215734243 -0.44075152278 0.1747726202
          3.9410691261 -4.6557765007 -0.61312556267 0.63587218523 -1.2808544636 -0.20633240044
          6.6854982376 -5.4235496521 -2.1197517981e-06 3.7497317791 -2.3622925282 0.98956829309
          0 0 0 0 0 0
          3.9495642185 -4.7349405289 -0.30728316307 2.7000756264 -1.9430967569 0.82276809216
          5.2147455215 -5.0568032265 -1.3070201703e-06 0.59368807077 -1.4194955826 -0.12112196535
          0.9847266078 -0.52780157328 0.57181710005 0.44516313076 -0.50631099939 1.1380415117e-06
          2.001429081 -2.8841190338 5.6365212231e-07 2.953555584 -3.1084167957 0.32232710719
          1.3255019188 -1.5008641481 0.22989034653 3.949942112 -4.7599258423 -4.7856622132e-07
          1.951245904 -1.5974576473 0.64493745565 0.57430571318 -1.4486954212 1.3240991166e-06
          2.7933027744 -4.4683423042 -0.50707769394 6.6851153374 -5.3946866989 0.41764354706
          5.2557163239 -3.742733717 0.92520540953 0 0 0
          7.913184166 -7.0169768333 -0.74303823709 0 0 0
          0 0 0 0.89407026768 -2.5865194798 -0.29493021965
          2.7647144794 -4.5287284851 -0.25476297736 7.9484128952 -7.0748734474 -0.37385439873
          6.2970523834 -6.6862630844 -0.66836351156 5.2102518082 -5.0286364555 0.36296632886
          0.15091969073 -0.50886118412 -0.15105766058 0 0 0
          3.9730908871 -3.3374197483 0.78142786026 0.65435230732 -0.34418037534 0.41355621815
          0.83800649643 -2.6983931065 -0.15770328045 0.45185297728 -0.47301396728 0.1142007336
          0.083936519921 -0.60633271933 -0.059483520687 2.0192661285 -2.8578197956 0.23699457943
          6.3285598755 -6.7463707924 -0.33437731862 3.9495635033 -4.7349424362 0.30728217959
          2.7545826435 -4.544532299 4.0865859319e-07 7.954117775 -7.0958647728 -2.805678605e-06
          0.32700866461 -1.5879436731 -0.27422493696 0.59368735552 -1.4194968939 0.1211246103
          0 0 0 4.8642830849 -6.4351115227 -0.59396183491
          1.3738080263 -1.3806171417 0.45679587126 2.9614286423 -3.0018830299 0.63437211514
          0.82766962051 -2.7283687592 1.3563873154e-06 6.3368458748 -6.7674722672 -1.8525274754e-06
          0.097582004964 -0.64886039495 2.3722445803e-06 0.21642164886 -1.5831356049 -0.075639635324
          4.8796405792 -6.4916100502 -0.2969224751 6.6475505829 -5.3128995895 0.82485359907
          0 0 0 1.4972753525 -4.3258690834 -0.45810872316
          5.1779398918 -4.9468307495 0.72018384933 0.27054297924 -1.6274365187 2.6565928692e-06
          1.4253968 -4.3639235497 -0.20880331099 4.8833146095 -6.5113949776 -8.870910051e-07
          0.45591071248 -0.34923192859 0.24239847064 2.7647137642 -4.5287303925 0.25476378202
          3.5257334709 -6.2807531357 -0.53102868795 7.9484119415 -7.0748753548 0.37384873629
          0.55521446466 -2.8111982346 -0.44531783462 2.0569043159 -2.7501862049 0.46242243052
          0 0 0 0.83800578117 -2.698394537 0.15770600736
          3.5282108784 -6.3233642578 -0.26595339179 0.083935119212 -0.60633349419 0.059488061816
          0.53738939762 -2.829969883 -0.14524558187 6.3285589218 -6.7463726997 0.33437356353
          3.9410676956 -4.6557803154 0.61312454939 0.63587129116 -1.2808570862 0.20633502305
          9.0760917664 -8.7951946259 -0.68820118904 0 0 0
          1.3881957531 -4.3751173019 1.3875123841e-06 7.3418102264 -8.4864320755 -0.62822264433
          9.1027421951 -8.8416919708 -0.34527474642 0 0 0
          0.10129319131 -0.73946863413 -0.12197066098 7.3670959473 -8.5353860855 -0.31327793002
          3.5348889828 -6.3409986496 1.3807716925e-07 0.06578938663 -0.78081822395 -0.033549264073
          0.2164196521 -1.5831364393 0.075644820929 0.59141486883 -2.9295670986 2.5618362542e-06
          4.8796396255 -6.4916124344 0.29692068696 5.7337913513 -8.2549152374 -0.5663279295
          0.099732644856 -1.7532601357 -0.11351352185 9.109826088 -8.8585042953 -3.5560483411e-06
          0 0 0 0.044756554067 -1.7973819971 -0.072491444647
          5.7549066544 -8.3013839722 -0.28303223848 7.3745584488 -8.5524682999 -2.4846142423e-06
          0.053850322962 -0.79506498575 -1.0514260794e-05 2.7933015823 -4.4683465958 0.5070784688
          2.2901418209 -6.1585373878 -0.51428586245 7.9131822586 -7.016980648 0.74303251505
          0 0 0 0.99007642269 -4.4972872734 -0.43287453055
          1.4253960848 -4.363925457 0.20880611241 0.89406919479 -2.5865228176 0.29493296146
          6.2970504761 -6.6862668991 0.66835969687 0.15091817081 -0.50886332989 0.15106202662
          0.97265487909 -4.5383682251 -0.19828622043 2.219824791 -6.1695141792 -0.2513641119
          3.5282101631 -6.323366642 0.26595366001 0.53738749027 -2.8299708366 0.14525069296
          5.7608876228 -8.318025589 -1.3980125004e-06 0.005122823175 -1.7959033251 -1.4435949197e-05
          4.2519893646 -8.1104726791 -0.51780956984 0.04889947176 -3.0212192535 -0.24396385252
          0.32700663805 -1.5879467726 0.27422955632 9.1027402878 -8.8416948318 0.34526759386
          4.8642811775 -6.4351158142 0.59395998716 0 0 0
          2.1334519386 -6.1531486511 1.2944167338e-06 0.94023150206 -4.5722794533 2.7478733955e-06
          4.264957428 -8.1553411484 -0.26102569699 7.3670949936 -8.5353889465 0.31327292323
          -0.17405816913 -3.0634987354 -0.077811293304 0.065807916224 -0.78081673384 0.033533509821
          1.4972742796 -4.3258728981 0.45811158419 4.2624912262 -8.1776885986 -2.6545856713e-07
          5.7549057007 -8.3013858795 0.28302940726 0.04480151087 -1.7973875999 0.072446316481
          -0.26982849836 -3.1234931946 -4.3088890379e-05 10.179906845 -10.626996994 -0.65920990705
          0 0 0 10.197187424 -10.67257309 -0.32969081402
          3.525731802 -6.2807574272 0.53102892637 8.3381147385 -10.324521065 -0.59835726023
          0.55521148443 -2.8112008572 0.44532316923 1.2005929947 -6.1007151604 -0.40703433752
          0.055261019617 -0.86759316921 -0.063781306148 0.972653687 -4.5383706093 0.19829165936
          2.2198240757 -6.1695165634 0.2513667047 0 0 0
          8.356388092 -10.372426987 -0.29806166887 1.2110369205 -6.1043829918 -0.26752132177
          0.02647013776 -0.89703607559 -0.023343805224 2.949816227 -8.012172699 -0.47775632143
          0.39424756169 -4.7672276497 -0.4481216073 9.0760889053 -8.7951984406 0.68819391727
          0 0 0 7.3418073654 -8.4864368439 0.62821751833
          10.203588486 -10.688390732 -4.3922473196e-06 -0.0033275794704 -4.4758005142 -0.19625227153
          2.9753267765 -8.0692338943 -0.25496855378 0.1013166979 -0.73946732283 0.12196619064
          6.5627627373 -10.089818954 -0.53391289711 0.06851798296 -1.9331189394 -0.099593557417
          0 0 0 4.2649564743 -8.1553440094 0.26102513075
          -0.17400200665 -3.0633955002 0.077740706503 8.3624353409 -10.38838768 -3.2157065561e-06
          1.1859325171 -6.0363302231 2.6032707865e-06 6.5819630623 -10.136356354 -0.26492017508
          0.021115895361 -1.9844110012 -0.04155947268 0.020177738741 -0.90489083529 -9.4289689514e-06
          5.7337889671 -8.2549200058 0.56632500887 0.09984613955 -1.7532469034 0.11348884553
          2.984162569 -8.1062450409 9.7161932899e-07 -0.15437722206 -4.3847794533 -1.3651271047e-06
          2.2901406288 -6.1585426331 0.51428842545 6.5855898857 -10.150382996 -2.0166276045e-06
          -0.0014483205741 -2.0095038414 -1.3686683815e-05 0.99007463455 -4.4972920418 0.43288004398
          10.197185516 -10.672574997 0.32968199253 4.9134020805 -9.9714183807 -0.46710592508
          0 0 0 0.11532195657 -3.1874427795 -0.15676701069
          4.9329972267 -10.008882523 -0.2319393754 8.3563871384 -10.372429848 0.29805520177
          0.026485044509 -0.89703017473 0.023327006027 1.2110358477 -6.104385376 0.26752659678
          0.071005277336 -3.2466070652 -0.081454612315 4.2519869804 -8.1104774475 0.51780897379
          1.5238820314 -7.8927927017 -0.41108250618 2.9753258228 -8.0692367554 0.25497052073
          0.04940520972 -3.0211696625 0.24401554465 -0.0031522840727 -4.4759292603 0.196240291
          0.67510890961 -6.4595251083 -0.56758475304 1.6326144934 -7.981212616 -0.2170728296
          4.9320063591 -10.019369125 -7.8612640664e-07 6.5819616318 -10.136359215 0.26491612196
          0.021154573187 -1.9843933582 0.041540049016 0.69892770052 -6.3920927048 -0.25819072127
          0.046641524881 -3.2631649971 -4.9240466069e-06 11.263513565 -12.529486656 -0.64839482307
          0 0 0 0.020749744028 -0.92840355635 -0.026074092835
          1.7835468054 -8.0773830414 2.2373312731e-06 3.4761059284 -9.9712553024 -0.42207735777
          9.3114490509 -12.224194527 -0.57968962193 10.179903984 -10.627000809 0.65920096636
          0 0 0 0 0 0
          0.75080782175 -6.3877301216 5.1454480854e-06 0.16995359957 -4.6577334404 -0.24943397939
          11.272904396 -12.579388618 -0.32339918613 3.5056695938 -9.9862613678 -0.20784448087
          9.321849823 -12.276163101 -0.28863301873 8.3381118774 -10.324525833 0.59835064411
          0.0073486543261 -0.9580630064 -0.0086781689897 1.2005913258 -6.1007204056 0.40703958273
          0.05528550595 -0.86758571863 0.063775129616 0.12195014954 -4.6828098297 -0.19369482994
          4.9329957962 -10.008885384 0.23193776608 0.07105652988 -3.246607542 0.081459015608
          7.3798723221 -11.969737053 -0.5047069788 2.9498143196 -8.012178421 0.47775825858
          0.39521473646 -4.7681274414 0.44809529185 0 0 0
          0.03126540035 -2.0117168427 -0.041983701289 11.277586937 -12.595897675 -5.348250852e-06
          0.0033131220844 -0.96726804972 -3.7606146179e-06 3.5158388615 -9.9905910492 4.4168916702e-07
          7.3946175575 -12.020042419 -0.24943716824 6.5627598763 -10.089823723 0.53390872478
          9.325756073 -12.292690277 -4.0687732508e-06 0.068583965302 -1.9330788851 0.09958589077
          0.12886501849 -4.6238951683 3.2883373933e-05 0.013123414479 -2.0567946434 -0.019752152264
          1.6326136589 -7.981215477 0.21707743406 0.69892954826 -6.3920969963 0.2582013905
          1.0211576223 -8.2177534103 -0.54555284977 7.3988833427 -12.033158302 -2.7510272957e-06
          0.006181824021 -2.0734858513 -1.9895480818e-07 1.0630414486 -8.2243328094 -0.2037871033
          5.4807043076 -11.82568264 -0.42630776763 0 0 0
          0.039587885141 -3.2698845863 -0.069244101644 11.272902489 -12.579390526 0.3233884275
          0.0073549146764 -0.95805585384 0.008672490716 3.5056684017 -9.9862642288 0.20784540474
          5.4888181686 -11.8605299 -0.21008564532 4.9133992195 -9.9714231491 0.46710422635
          9.3218479156 -12.276165009 0.2886248529 2.1707251072 -9.9961004257 -0.45190283656
          0.17269870639 -6.8098511696 -0.60645890236 0.11533195525 -3.1874396801 0.15678621829
          0.013125425205 -3.3300054073 -0.039035022259 0.12197192013 -4.6829223633 0.19379502535
          2.2000613213 -9.9929924011 -0.19223645329 0.17081765831 -6.7148270607 -0.31593328714
          1.0671136379 -8.2834539413 3.7307795537e-06 1.5238802433 -7.8927984238 0.41108739376
          7.3946156502 -12.020044327 0.24943161011 0.675111413 -6.4595303535 0.56759274006
          5.4813666344 -11.864061356 -1.4192499975e-06 0.013128485531 -2.0567872524 0.019752968103
          0.010729480535 -3.3448486328 1.3604008927e-05 2.2198116779 -9.9892177582 1.8781589688e-06
          0.17211005092 -6.7109436989 6.2740514295e-06 0.022285979241 -4.786942482 -0.12554873526
          3.9043560028 -11.868407249 -0.37755304575 11.26350975 -12.529491425 0.64838391542
          0 0 0 1.0630400181 -8.2243347168 0.20379461348
          0.020760960877 -0.92839443684 0.026073282585 0.0021093471441 -4.8642706871 -0.069747403264
          3.4761035442 -9.9712610245 0.42207840085 9.3114452362 -12.224200249 0.57968127728
          3.9176287651 -11.880838394 -0.18425574899 12.345543861 -14.534720421 -0.64621472359
          0 0 0 0.16989968717 -4.6580209732 0.24943728745
          12.349223137 -14.588274956 -0.32204136252 -0.022655015811 -0.94541603327 0.015870647505
          10.277528763 -14.226299286 -0.57250726223 5.4888162613 -11.860532761 0.21008276939
          0 0 0 0.013119197451 -3.330026865 0.03905999288
          10.281518936 -14.281308174 -0.28527653217 -0.020010648295 -0.97422480583 0.0072997030802
          2.2000613213 -9.9929962158 0.19224026799 0.17082099617 -6.7148327827 0.31594902277
          7.3798685074 -11.969742775 0.50470125675 -0.0092657683417 -4.8776111603 2.814374966e-05
          3.9103426933 -11.887233734 -1.208506859e-07 0.031273942441 -2.0117108822 0.041988898069
          1.392929554 -10.158787727 -0.41088208556 -0.041220728308 -2.0361912251 0.01698028855
          8.2082538605 -13.954172134 -0.49266660213 0.46576970816 -8.57122612 -0.61725348234
          12.3515625 -14.605722427 -6.4680702963e-06 0 0 0
          1.4163451195 -10.170092583 -0.2121745348 10.283679962 -14.298724174 -5.0775670388e-06
          -0.020637540147 -0.98220485449 5.7505468476e-07 8.213470459 -14.010477066 -0.24438379705
          -0.043359775096 -2.0802695751 0.0094666173682 0.53733158112 -8.6215372086 -0.3431892097
          1.0211560726 -8.2177600861 0.54556053877 1.4220552444 -10.167570114 3.5590533116e-06
          0.07733245194 -6.5766525269 -0.092272818089 0.0021128314547 -4.8643217087 0.069792762399
          2.7675783634 -11.921284676 -0.3966422677 8.216424942 -14.026766777 -3.6297058159e-06
          5.4807004929 -11.825688362 0.42630472779 3.917627573 -11.880841255 0.18425552547
          0.57181054354 -8.5918922424 1.7329444745e-05 -0.043988026679 -2.0943996906 5.2519208111e-06
          0.039582740515 -3.2699241638 0.069265164435 12.34922123 -14.588276863 0.32202836871
          6.0921034813 -13.731553078 -0.40590152144 0.05714135617 -6.6933712959 -0.093118838966
          -0.058187481016 -3.310100317 0.01225321088 2.7780854702 -11.918100357 -0.19134058058
          2.1707243919 -9.9961071014 0.45190674067 0.17270222306 -6.8098630905 0.60647451878
          0 0 0 -0.063260085881 -3.3689918518 0.0068724779412
          10.281516075 -14.281311035 0.28526630998 -0.020010182634 -0.9742218852 -0.0072979829274
          6.0986795425 -13.779231071 -0.20035405457 0.044907364994 -6.6890239716 1.9732715373e-05
          2.7747180462 -11.920588493 1.3877291849e-06 1.4163438082 -10.170095444 0.21218150854
          6.0988149643 -13.787610054 -2.1777386792e-06 -0.066555485129 -3.3879871368 1.3394414054e-05
          8.213467598 -14.010479927 0.24437646568 -0.043361522257 -2.0802714825 -0.0094556855038
          0.53733175993 -8.6215381622 0.34320744872 0.022301552817 -4.7870178223 0.12557947636
          3.9043536186 -11.868413925 0.37755286694 4.2364268303 -13.662555695 -0.33029693365
          12.345540047 -14.534726143 0.64620155096 0 0 0
          -0.060229767114 -4.8088984489 0.016327794641 -0.022652074695 -0.94541335106 -0.015866875648
          10.277524948 -14.226305008 0.57249689102 0.057153213769 -6.6933922768 0.093155510724
          2.7780845165 -11.918104172 0.1913433224 4.2239494324 -13.653183937 -0.17146085203
          0.89864242077 -10.538239479 -0.44943591952 -0.067798569798 -4.884478569 0.0070472364314
          -0.063261538744 -3.3690049648 -0.0068469149992 6.0986771584 -13.779233932 0.20034962893
          0.90834903717 -10.535006523 -0.21023033559 1.7012939453 -11.887138367 -0.40177029371
          0.12028285861 -8.4155664444 -0.063490279019 13.426387787 -16.662794113 -0.64556133747
          0 0 0 11.241359711 -16.355241776 -0.57254576683
          1.3929274082 -10.158794403 0.41088846326 -0.041218746454 -2.0361959934 -0.016969200224
          8.2082500458 -13.954177856 0.49265906215 0.079424507916 -8.5627832413 -0.084758363664
          1.6981364489 -11.882864952 -0.19015151262 0.46576800942 -8.5712347031 0.61726939678
          13.427228928 -16.716596603 -0.32199752331 0 0 0
          -0.07249199599 -4.9071912766 1.895655987e-05 4.1899185181 -13.63832283 -7.4580407272e-07
          -0.072561882436 -0.93722689152 0.057938817888 11.241387367 -16.409702301 -0.28589388728
          -0.055444158614 -0.96497482061 0.024427000433 0.9201105237 -10.537935257 4.8576653171e-06
          9.0520477295 -16.076974869 -0.49807676673 0.072679340839 -8.5729646683 1.0529677638e-05
          1.6889355183 -11.883928299 2.6872587569e-06 13.427671432 -16.734209061 -7.7961231e-06
          0 0 0 -0.12172130495 -2.017113924 0.076791323721
          9.0494527817 -16.133769989 -0.24783012271 11.241991997 -16.42757225 -6.2797803366e-06
          0.077350065112 -6.5766844749 0.092306435108 2.7675764561 -11.921290398 0.3966447711
          -0.0544821769 -0.97201085091 2.2853364499e-06 -0.10956793278 -2.0592973232 0.040159519762
          6.0920991898 -13.731559753 0.40589693189 -0.058184750378 -3.3101189137 -0.012232584879
          -0.046637237072 -6.534283638 0.027267746627 3.2160322666 -13.724625587 -0.39161768556
          -0.067796193063 -4.8844976425 -0.0070113055408 4.2239480019 -13.653186798 0.17145933211
          -0.058358460665 -6.6192154884 0.015995576978 3.2063074112 -13.705590248 -0.17307120562
          0.90835177898 -10.535014153 0.21023929119 9.0502510071 -16.15174675 -4.6892146202e-06
          -0.10573434085 -2.0725059509 6.3978495746e-06 6.82548666 -15.814418793 -0.41312900186
          0.079427927732 -8.5627851486 0.084782063961 1.6981350183 -11.882866859 0.19015702605
          13.427226067 -16.716600418 0.32198187709 0 0 0
          -0.1499786675 -3.2722353935 0.089348785579 6.8253822327 -15.874742508 -0.20596727729
          11.241384506 -16.409704208 0.2858812809 -0.14412841201 -3.3271346092 0.047422200441
          -0.066165216267 -6.6522698402 1.7634418327e-05 3.1859166622 -13.698448181 6.4391088017e-07
          -0.055444344878 -0.96497452259 -0.02442237176 9.0494499207 -16.133771896 0.24782066047
          6.830321312 -15.893345833 -3.0399462503e-06 -0.14297969639 -3.3445732594 1.1229790289e-05
          4.2364244461 -13.66256237 0.33029538393 1.1277346611 -12.134919167 -0.45216304064
          -0.10956833512 -2.059299469 -0.040146939456 -0.060225021094 -4.8089251518 -0.016300937161
          -0.081323586404 -10.692206383 -0.26082277298 1.1506592035 -12.13286972 -0.19021658599
          0.89863890409 -10.538244247 0.44944563508 -0.086170643568 -10.747039795 -0.17398749292
          -0.058353066444 -6.6192293167 -0.015961697325 3.2063064575 -13.705593109 0.17307259142
          1.7012912035 -11.887143135 0.40177595615 0.1202840358 -8.4155740738 0.063511379063
          -0.14843828976 -4.7425904274 0.097023412585 4.6163492203 -15.561481476 -0.3172340095
          13.426383018 -16.662799835 0.64554554224 0 0 0
          11.241353989 -16.355249405 0.57253289223 -0.15004269779 -4.8054761887 0.052280038595
          1.1307748556 -12.138631821 3.6219535104e-06 -0.038982659578 -8.4631175995 0.014071978629
          2.2904603481 -13.790204048 -0.4075730741 4.6098780632 -15.587628365 -0.16453225911
          -0.072559379041 -0.93722683191 -0.05793357268 -0.091505840421 -10.737153053 5.9713815972e-06
          6.8253793716 -15.874745369 0.20596109331 -0.14412844181 -3.3271403313 -0.047400746495
          2.2467553616 -13.764821053 -0.18234290183 -0.051211357117 -8.5423374176 0.012337787077
          9.0520420074 -16.076980591 0.49806708097 -0.15210433304 -4.8279047012 1.4323080904e-05
          4.5904798508 -15.589725494 -1.3868138922e-06 -0.12171819061 -2.017116785 -0.076779589057
          2.1883118153 -13.73517704 2.0132051759e-06 14.500680923 -18.91411972 -0.64301395416
          0 0 0 -0.061191860586 -8.5791978836 1.2985795365e-05
          14.500734329 -18.96531868 -0.32127314806 0 0 0
          1.1506586075 -12.132872581 0.1902243346 12.202314377 -18.609386444 -0.57469642162
          -0.046630676836 -6.5343022346 -0.027239611372 3.2160303593 -13.724632263 0.39161926508
          -0.12041328847 -0.90949445963 0.09886341542 -0.086170829833 -10.747044563 0.1739988625
          12.201349258 -18.660690308 -0.28735733032 -0.089965879917 -0.93460589647 0.041226152331
          6.8254814148 -15.814425468 0.41312247515 14.500085831 -18.982303619 -9.3727066997e-06
          -0.15004140139 -4.8054838181 -0.052252862602 9.9074554443 -18.333957672 -0.50789415836
          -0.20086067915 -1.9559419155 0.13611473143 4.6098752022 -15.587630272 0.16452938318
          0 0 0 3.801782608 -15.586466789 -0.35735735297
          -0.11136252433 -6.4552412033 0.091706804931 -0.14997556806 -3.2722420692 -0.089329950511
          -0.17572161555 -1.993329525 0.070754632354 9.902305603 -18.386083603 -0.25372573733
          12.201144218 -18.678037643 -7.7093955042e-06 2.2467551231 -13.764824867 0.18234707415
          -0.12332628667 -6.5169606209 0.048490650952 3.7206728458 -15.53134346 -0.16469408572
          -0.05120742321 -8.5423431396 -0.012312834151 -0.087694734335 -0.94098168612 2.4172065878e-06
          0.062490459532 -12.047737122 -0.32357108593 9.901591301 -18.403762817 -5.9549747675e-06
          1.127732873 -12.134923935 0.45217111707 -0.16849957407 -2.0035870075 5.5335508478e-06
          -0.12734958529 -6.5439682007 1.4141356587e-05 0.053119905293 -12.085476875 -0.17904621363
          3.6032965183 -15.468441963 1.9169351617e-07 -0.081322833896 -10.692213058 0.2608332932
          14.500731468 -18.965322495 0.32125434279 7.5917582512 -18.079236984 -0.43871358037
          0.088633842766 -10.392842293 0.029354428872 0 0 0
          -0.25124770403 -3.1677398682 0.16466037929 1.4363372326 -13.861711502 -0.34614560008
          -0.23522357643 -3.2177476883 0.08780927211 7.5833063126 -18.135746002 -0.21722066402
          12.201345444 -18.660694122 0.28734183311 0.05834473297 -10.480333328 -0.0099400468171
          1.4139984846 -13.863652229 -0.17161975801 -0.089965738356 -0.93460601568 -0.041221458465
          -0.1484349519 -4.7425990105 -0.096999764442 4.6163444519 -15.561487198 0.31723058224
          0.060954269022 -12.079942703 5.4745910347e-06 -0.038979966193 -8.4631252289 -0.014048927464
          2.2904586792 -13.790210724 0.40757748485 7.583073616 -18.155092239 -4.1513326323e-06
          9.902302742 -18.386087418 0.2537137568 0.054030612111 -10.503904343 9.0405037554e-06
          -0.17572124302 -1.9933303595 -0.070743754506 -0.23019419611 -3.2305788994 8.6112149802e-06
          -0.12332402915 -6.5169668198 -0.048463571817 3.7206728458 -15.531347275 0.16469450295
          1.3719816208 -13.836068153 3.3950536817e-06 2.7517592907 -15.515066147 -0.37069427967
          -0.048763912171 -8.3515291214 0.066623784602 2.7114362717 -15.480941772 -0.18928207457
          -0.071165792644 -8.4047050476 0.032448668033 14.500674248 -18.914125443 0.64299494028
          0 0 0 0.053120847791 -12.085481644 0.17905667424
          -0.26123139262 -4.5871739388 0.1791241914 5.2444090843 -17.778850555 -0.32874360681
          -0.26006448269 -4.646794796 0.096471585333 12.202307701 -18.609394073 0.5746807456
          -0.12041069567 -0.909494102 -0.098858498037 5.2265005112 -17.866075516 -0.17687115073
          7.5833029747 -18.135749817 0.21721224487 0.058345999569 -10.480336189 0.0099574942142
          -0.23522296548 -3.2177495956 -0.087792538106 1.413998127 -13.863656044 0.17162650824
          2.669000864 -15.43614769 1.7887222157e-06 -0.074678868055 -8.4337148666 1.1573317352e-05
          9.9074487686 -18.333965302 0.50788187981 -0.20085732639 -1.9559420347 -0.13610450923
          3.8017811775 -15.586473465 0.3573577404 -0.25990968943 -4.6617603302 1.0487147847e-05
          -0.11136009544 -6.455247879 -0.091682955623 5.2188248634 -17.918327332 -2.2676026674e-06
          15.564991951 -21.277336121 -0.63903170824 0 0 0
          0.062489997596 -12.04774189 0.32358127832 2.7114355564 -15.480945587 0.18928554654
          0 0 0 13.161436081 -20.975460052 -0.57558465004
          0.1754989177 -12.007376671 -0.069469466805 -0.07116381079 -8.4047088623 -0.032426167279
          -0.15734772384 -0.85694497824 0.13537582755 0.77423411608 -14.071371078 -0.3317464292
          15.565306664 -21.325223923 -0.31961506605 7.5917520523 -18.079244614 0.43870487809
          13.160684586 -21.023109436 -0.28801593184 -0.11343939602 -0.87943458557 0.05442154035
          0.088632404804 -10.392846107 -0.029338506982 0.12753066421 -12.113965034 -0.055542562157
          -0.25124454498 -3.1677405834 -0.1646451354 4.1799354553 -17.235109329 -0.36032351851
          -0.26006355882 -4.6467971802 -0.096451230347 1.4363365173 -13.861718178 0.34615272284
          -0.21424788237 -6.2516069412 0.16341553628 5.2264966965 -17.86607933 0.17686636746
          0.76143610477 -14.095850945 -0.12402231246 -0.23092915118 -6.3161077499 0.0862281546
          4.0930562019 -17.18264389 -0.21037507057 10.76265049 -20.703126907 -0.51456439495
          15.564619064 -21.341239929 -1.12303469e-05 -0.26182690263 -1.8611700535 0.18715763092
          0 0 0 10.759483337 -20.751470566 -0.25736492872
          -0.22694204748 -1.8873701096 0.095474973321 13.159976959 -21.039264679 -9.3962862593e-06
          1.8157162666 -15.500618935 -0.36119812727 0.12910936773 -12.127488136 6.3638517531e-06
          0.6948876977 -14.078420639 4.1005187086e-06 0.0011162037263 -10.250885963 0.028954615816
          -0.10846347362 -0.88581806421 1.8938906123e-06 1.7220567465 -15.476431847 -0.15853953362
          3.9424757957 -17.099906921 2.7010386816e-07 -0.01487711072 -10.3002882 0.012700137682
          -0.22999739647 -6.3355193138 1.0498773918e-05 2.7517580986 -15.515072823 0.37069758773
          10.758773804 -20.768766403 -7.4535050771e-06 -0.04876338318 -8.3515329361 -0.066603444517
          -0.21525558829 -1.8989238739 4.1128919293e-06 8.363524437 -20.457876205 -0.45364230871
          15.565303802 -21.32522583 0.3195925355 1.6129090786 -15.420351982 3.0680314467e-06
          -0.34968876839 -3.022769928 0.24042293429 -0.26122912765 -4.5871748924 -0.17910581827
          -0.016897503287 -10.337711334 8.5524879978e-06 5.2444024086 -17.778856277 0.32873782516
          0 0 0 8.3529224396 -20.507076263 -0.22748368979
          -0.31737104058 -3.0510599613 0.12923367321 13.160680771 -21.023113251 0.28799706697
          0.12753097713 -12.113967896 0.05555491522 0.76143705845 -14.095854759 0.12403091043
          -0.11343912035 -0.87943446636 -0.054417863488 4.0930552483 -17.182645798 0.21037530899
          -0.23092801869 -6.3161101341 -0.086207777262 10.759479523 -20.75147438 0.25734990835
          8.3468723297 -20.525774002 -5.4399656619e-06 3.2997236252 -17.242086411 -0.42550483346
          -0.12805639207 -8.185749054 0.096441015601 -0.31900218129 -3.053137064 6.1184632614e-06
          -0.22694142163 -1.8873699903 -0.095466844738 -0.15377423167 -8.2555160522 0.039158519357
          1.7220571041 -15.476435661 0.15854562819 3.22985816 -17.223726273 -0.15986517072
          -0.014876086265 -10.300290108 -0.012683379464 5.9739484787 -20.233388901 -0.39440330863
          15.564985275 -21.27734375 0.63900893927 0 0 0