<?xml version="1.0"?>
<VTKFile type="UnstructuredGrid" version="0.1" byte_order="LittleEndian" header_type="UInt32" compressor="vtkZLibDataCompressor">
  <UnstructuredGrid>
    <Piece NumberOfPoints="6405" NumberOfCells="4800">
      <PointData>
        <DataArray type="Float32" Name="DISPLACEMENT" NumberOfComponents="3" ComponentName0="X-DISPLACEMENT" ComponentName1="Y-DISPLACEMENT" ComponentName2="Z-DISPLACEMENT" format="ascii" RangeMin="0" RangeMax="290.4893077">
          0 0 0 0 0 0
          2.1662611961 -1.346336484 -0.99549943209 0 0 0
          1.3825956583 -0.80510061979 -0.76334834099 0 0 0
          1.9813785553 -1.4842520952 -0.39428341389 1.2031214237 -0.91710907221 -0.31072616577
          0 0 0 3.8711290359 -2.4932088852 -1.0116103888
          0 0 0 3.8190531731 -2.65112257 -0.52217316628
          2.7705059052 -2.0694668293 -0.84513443708 0 0 0
          0 0 0 1.9883525372 -1.5294944048 -4.5373252533e-07
          1.0017943382 -0.54485595226 -0.57377022505 1.1987018585 -0.93705016375 -1.7000955665e-07
          2.7140278816 -2.1932380199 -0.43058055639 0.86100250483 -0.64144086838 -0.23418091238
          3.7764098644 -2.6952047348 -9.435264019e-07 1.9884514809 -1.7409434319 -0.66910499334
          0 0 0 2.6782751083 -2.233705759 -4.2282746904e-07
          1.9257626534 -1.849468708 -0.34362772107 0 0 0
          5.4011626244 -3.9450068474 -0.94093078375 0 0 0
          0.85682082176 -0.65514481068 1.3749550476e-07 0 0 0
          0 0 0 1.9813786745 -1.4842525721 0.39428251982
          4.0661873817 -3.5379347801 -0.80244868994 5.420817852 -4.0563626289 -0.48002764583
          0.53597009182 -0.34776082635 -0.38912639022 1.2031213045 -0.91710960865 0.31072583795
          4.0830187798 -3.642939806 -0.40906065702 0.40948614478 -0.44163733721 -0.17519724369
          1.8952376842 -1.8831503391 1.4474203169e-07 3.8190531731 -2.6511235237 0.52217125893
          0 0 0 0 0 0
          1.2583066225 -1.5326355696 -0.53760826588 2.9982786179 -3.2106337547 -0.66771304607
          5.4074716568 -4.0970344543 -1.5154749917e-06 2.7140274048 -2.193239212 0.43057966232
          2.9957368374 -3.3122246265 -0.33950844407 0.86100232601 -0.64144140482 0.23418115079
          4.0740346909 -3.6784052849 -7.6092078416e-07 1.2077034712 -1.6273747683 -0.26486718655
          0.40002763271 -0.45122474432 5.070695579e-07 0 0 0
          6.8100848198 -5.5685544014 -0.83494758606 0 0 0
          5.2945752144 -5.1941380501 -0.73454672098 1.9257622957 -1.8494699001 0.34362798929
          6.8505249023 -5.646938324 -0.42295861244 2.1662611961 -1.3463373184 0.99549859762
          0 0 0 0 0 0
          1.1846653223 -1.6589466333 8.1205041624e-07 2.9843299389 -3.3438854218 2.7661874569e-08
          0.50556457043 -0.48250934482 -0.37504649162 5.3302512169 -5.2734251022 -0.37073010206
          1.3825953007 -0.80510169268 0.76334792376 2.1092069149 -2.9589290619 -0.51373493671
          0 0 0 5.4208173752 -4.0563640594 0.48002457619
          0.50978982449 -0.55349183083 -0.16595287621 2.0936675072 -3.0672590733 -0.25719979405
          4.0830183029 -3.6429414749 0.4090591073 0.40948566794 -0.44163796306 0.17519818246
          4.027572155 -4.8743228912 -0.62811130285 0.77608209848 -1.4587061405 -0.31359186769
          6.8513936996 -5.6747541428 -2.1422470127e-06 3.8711285591 -2.493211031 1.0116084814
          0 0 0 0 0 0
          4.0413770676 -4.9559016228 -0.31630221009 2.7705051899 -2.0694689751 0.84513354301
          5.3353662491 -5.300886631 -1.1828036577e-06 0.77668941021 -1.5858550072 -0.16410703957
          1.001794219 -0.54485714436 0.57377040386 0.52100008726 -0.59775596857 1.399667326e-06
          2.0784027576 -3.0931818485 9.2275888619e-07 2.9957363605 -3.3122262955 0.33950847387
          1.2077028751 -1.6273760796 0.26486879587 4.0418930054 -4.9809784889 -1.9888376812e-07
          1.988451004 -1.740945816 0.66910523176 0.76184147596 -1.6137939692 1.7265316501e-06
          2.8770580292 -4.6276040077 -0.50173813105 6.8505244255 -5.6469402313 0.42295432091
          5.4011616707 -3.9450097084 0.94092768431 0 0 0
          8.0899858475 -7.3177251816 -0.74879103899 0 0 0
          0 0 0 1.0943380594 -2.8150105476 -0.2916122973
          2.8566839695 -4.7079496384 -0.25617098808 8.1272821426 -7.3716526031 -0.37681931257
          6.4417481422 -6.9792256355 -0.67914819717 5.3302507401 -5.2734270096 0.37072771788
          0.25973391533 -0.63807445765 -0.22418683767 0 0 0
          4.0661864281 -3.537938118 0.80244708061 0.53596967459 -0.34776213765 0.38912719488
          1.0629967451 -2.9393980503 -0.16511581838 0.50978904963 -0.55349260569 0.16595557332
          0.230226174 -0.73059850931 -0.11516510695 2.0936670303 -3.0672607422 0.2572016418
          6.4748353958 -7.0363512039 -0.33985325694 4.0413761139 -4.9559035301 0.31630179286
          2.849511385 -4.7285280228 8.4900528918e-07 8.1334581375 -7.391462326 -2.8203255624e-06
          0.45736002922 -1.7124180794 -0.28997305036 0.77668857574 -1.5858564377 0.16411052644
          0 0 0 4.99507761 -6.713848114 -0.60683763027
          1.2583059072 -1.5326383114 0.53760993481 2.9982776642 -3.210637331 0.66771304607
          1.0522018671 -2.964081049 1.926850473e-06 6.4835929871 -7.0565228462 -1.6850128759e-06
          0.22947283089 -0.76648437977 1.4386781686e-06 0.3636918366 -1.7549962997 -0.084783799946
          5.0094342232 -6.7696962357 -0.30283927917 6.8100838661 -5.5685582161 0.83494317532
          0 0 0 1.4910471439 -4.4506788254 -0.38410508633
          5.2945737839 -5.1941418648 0.73454427719 0.37446838617 -1.7567151785 1.492434194e-06
          1.4452790022 -4.5320110321 -0.19866266847 5.0139746666 -6.7886176109 -5.3829938906e-07
          0.50556403399 -0.48251140118 0.37504914403 2.8566832542 -4.7079520226 0.25617268682
          3.6497006416 -6.5478038788 -0.53822797537 8.1272821426 -7.3716549873 0.37681362033
          0.73657751083 -3.1320898533 -0.42661646008 2.1092061996 -2.9589328766 0.51373678446
          0 0 0 1.0629960299 -2.9393999577 0.16511966288
          3.6412289143 -6.5893902779 -0.27101248503 0.23022766411 -0.73060011864 0.11516903341
          0.6578835845 -3.1099767685 -0.14351060987 6.4748344421 -7.0363535881 0.33984985948
          4.0275707245 -4.8743267059 0.62811082602 0.77608120441 -1.4587091208 0.31359544396
          9.2602434158 -9.1348514557 -0.69075268507 0 0 0
          1.4407929182 -4.5559043884 1.9619180875e-06 7.5038232803 -8.825712204 -0.63814425468
          9.2879657745 -9.1762218475 -0.3467258513 0 0 0
          0.19527794421 -0.81859362125 -0.17546387017 7.5297560692 -8.86972332 -0.31820592284
          3.6456921101 -6.6076698303 6.5966656848e-07 0.13316500187 -0.865709126 -0.057248175144
          0.3636957705 -1.7549982071 0.084787718952 0.73440057039 -3.1838619709 4.086545232e-06
          5.0094332695 -6.7696986198 0.30283817649 5.8846745491 -8.5994377136 -0.58527046442
          0.29277509451 -1.9085357189 -0.22567348182 9.2952537537 -9.1915683746 -3.5537552776e-06
          0 0 0 0.23557139933 -1.9628978968 -0.13746906817
          5.9041228294 -8.6395931244 -0.29175037146 7.5376758575 -8.8855047226 -2.2625092697e-06
          0.12837514281 -0.88410127163 0.00012380086991 2.8770568371 -4.6276082993 0.50173979998
          2.210452795 -6.4062728882 -0.53979504108 8.0899839401 -7.31772995 0.74878525734
          0 0 0 1.0990693569 -4.7122740746 -0.55061775446
          1.4452781677 -4.5320134163 0.19866657257 1.0943369865 -2.8150146008 0.2916161716
          6.4417462349 -6.9792304039 0.6791446805 0.25973722339 -0.63807845116 0.22419147193
          1.1000001431 -4.7174668312 -0.22845458984 2.1645436287 -6.4115657806 -0.25619357824
          3.641228199 -6.589392662 0.27101379633 0.65788972378 -3.1099853516 0.14351812005
          5.9100136757 -8.6543674469 -9.6625853985e-07 0.22742629051 -1.9584345818 0.00034208828583
          4.3811397552 -8.4820022583 -0.54856425524 0.22772437334 -3.478215456 -0.48057460785
          0.45736560225 -1.7124222517 0.28998124599 9.2879648209 -9.1762247086 0.34671869874
          4.9950757027 -6.7138528824 0.60683649778 0 0 0
          2.141644001 -6.4127669334 1.9361702925e-06 1.1583178043 -4.8106341362 3.9103065319e-06
          4.3924255371 -8.5121660233 -0.27663892508 7.5297551155 -8.869726181 0.31820136309
          0.26293873787 -3.3904120922 -0.29380565882 0.13298068941 -0.8657002449 0.057444240898
          1.4910458326 -4.4506831169 0.38410893083 4.3941874504 -8.5300617218 3.5454468161e-07
          5.9041213989 -8.6395959854 0.29174843431 0.23484118283 -1.9629963636 0.13790492713
          0.2960806787 -3.3893756866 0.00062769430224 10.362671852 -10.989339828 -0.66058325768
          0 0 0 10.380403519 -11.029767036 -0.33081269264
          3.6496994495 -6.547809124 0.53822922707 8.5084733963 -10.689471245 -0.60769432783
          0.7365860939 -3.1321046352 0.42662340403 1.5130610466 -6.4826517105 -0.55060178041
          0.12054497004 -0.92242354155 -0.10868335515 1.0999977589 -4.717467308 0.22846190631
          2.164542675 -6.4115681648 0.25619745255 0 0 0
          8.5273971558 -10.732182503 -0.30269888043 1.5491981506 -6.4548411369 -0.28755259514
          0.080520749092 -0.96152925491 -0.045177679509 3.0384347439 -8.3951587677 -0.55462354422
          0.41075113416 -4.7322964668 -0.4908978045 9.2602415085 -9.1348562241 0.69074547291
          0 0 0 7.5038208961 -8.8257169724 0.63813960552
          10.387338638 -11.044203758 -4.3592331167e-06 0.55827093124 -4.9027924538 -0.2254665941
          3.0626363754 -8.4277229309 -0.27418807149 0.19502852857 -0.81862604618 0.17551262677
          6.7222166061 -10.463090897 -0.5522236228 0.17414039373 -2.0836744308 -0.17073403299
          0 0 0 4.3924245834 -8.5121688843 0.27663961053
          0.26083368063 -3.3892569542 0.29511541128 8.5336961746 -10.746748924 -2.9166737932e-06
          1.5505582094 -6.4200444221 3.3729149891e-06 6.744456768 -10.502951622 -0.27472859621
          0.14070877433 -2.1322631836 -0.088627561927 0.076516449451 -0.96997135878 0.0001145676797
          5.8846721649 -8.5994434357 0.58526843786 0.29185256362 -1.9084881544 0.22573822737
          3.0694954395 -8.4532556534 1.7663317067e-06 0.59589910507 -5.058716774 -6.3610023062e-06
          2.2104513645 -6.4062781334 0.53979891539 6.7496013641 -10.515890121 -1.4675015336e-06
          0.12852300704 -2.1433668137 0.00018327060388 1.0990662575 -4.7122759819 0.55062377453
          10.380402565 -11.029769897 0.33080393076 5.0597162247 -10.350759506 -0.50295192003
          0 0 0 0.28618294001 -3.442609787 -0.20189794898
          5.0868086815 -10.380597115 -0.25064834952 8.5273952484 -10.732185364 0.30269300938
          0.080372743309 -0.96158432961 0.045365784317 1.5491967201 -6.454843998 0.28755939007
          0.22914010286 -3.5200028419 -0.12277708203 4.3811378479 -8.4820079803 0.54856497049
          1.9311323166 -8.3383293152 -0.47000852227 3.0626354218 -8.4277267456 0.27419164777
          0.22464576364 -3.4782354832 0.48068845272 0.55624353886 -4.9010868073 0.22538000345
          1.1076780558 -6.8528423309 -0.64900189638 2.0339336395 -8.423327446 -0.24873924255
          5.0897402763 -10.390306473 -1.3341521665e-08 6.7444553375 -10.502955437 0.27472561598
          0.14043043554 -2.1322994232 0.088955722749 1.0603880882 -6.7065997124 -0.28028824925
          0.21012145281 -3.5376617908 1.0868585605e-06 11.445533752 -12.891926765 -0.65271121264
          0 0 0 0.059274956584 -0.98271012306 -0.055309664458
          2.1301736832 -8.4912261963 3.258134484e-06 3.6802000999 -10.347841263 -0.46577998996
          9.4882879257 -12.587125778 -0.58782726526 10.362669945 -10.989345551 0.66057437658
          0 0 0 0 0 0
          0.84547793865 -6.4570684433 -0.00010985530389 0.3327755332 -4.9043869972 -0.29497182369
          11.45468998 -12.939426422 -0.32584515214 3.7131860256 -10.363922119 -0.23571670055
          9.4997234344 -12.636642456 -0.29265600443 8.5084705353 -10.689476967 0.60768830776
          0.039587557316 -1.0186243057 -0.021532088518 1.5130592585 -6.4826569557 0.55060887337
          0.12037893385 -0.92248183489 0.10877387971 0.26990547776 -5.0503554344 -0.22773239017
          5.0868077278 -10.380599976 0.25064828992 0.22889961302 -3.519493103 0.12286878377
          7.5476918221 -12.337186813 -0.51714581251 3.0384333134 -8.3951644897 0.5546271801
          0.40555310249 -4.7276673317 0.48948571086 0 0 0
          0.10447248071 -2.1474218369 -0.073025584221 11.4603405 -12.9553442 -5.2731270443e-06
          0.036294173449 -1.0277197361 4.9489142839e-05 3.7185182571 -10.371371269 1.4388075442e-06
          7.5671224594 -12.384494781 -0.25620174408 6.722214222 -10.463096619 0.55222058296
          9.504160881 -12.65246582 -3.6667954646e-06 0.1736741364 -2.0837664604 0.17094545066
          0.34837430716 -5.0726437569 -0.00027537078131 0.079825147986 -2.2040493488 -0.037247981876
          2.0339329243 -8.423330307 0.24874594808 1.0602676868 -6.706597805 0.28019410372
          1.5070735216 -8.7469110489 -0.58935749531 7.5723042488 -12.397263527 -2.0371180653e-06
          0.068996943533 -2.222007513 3.1571715226e-05 1.576392293 -8.7798423767 -0.24964542687
          5.6675896645 -12.190198898 -0.44514206052 0 0 0
          0.14490906894 -3.4945003986 -0.095896013081 11.454688072 -12.939430237 0.32583457232
          0.039556622505 -1.0186582804 0.021617433056 3.7131850719 -10.363925934 0.23571962118
          5.6914782524 -12.223862648 -0.22061410546 5.0597138405 -10.350765228 0.50295180082
          9.4997224808 -12.636646271 0.29264861345 2.4609391689 -10.362893105 -0.47686171532
          -0.34083530307 -7.1523122787 -0.9697676301 0.28584301472 -3.4420449734 0.20217634737
          0.11387323588 -3.5795965195 -0.055383846164 0.26966139674 -5.0490441322 0.22721290588
          2.5089337826 -10.369303703 -0.22606545687 0.40927985311 -6.9408740997 -0.68343216181
          1.6217293739 -8.8515863419 -1.636390607e-06 1.9311310053 -8.3383359909 0.47001552582
          7.5671210289 -12.384497643 0.25619763136 1.1076266766 -6.8528237343 0.6489957571
          5.6926836967 -12.230701447 -4.3845150799e-07 0.07981660217 -2.2039968967 0.037316735834
          0.11141570657 -3.604241848 -6.7901746661e-05 2.5442874432 -10.37942028 2.9794032343e-06
          0.60835182667 -6.98016119 -6.5235653892e-05 0.13124890625 -5.1089920998 -0.18437288702
          4.0933704376 -12.221877098 -0.40652054548 11.445530891 -12.891932487 0.6527004838
          0 0 0 1.5764063597 -8.7798595428 0.24964781106
          0.059235297143 -0.98273837566 0.055361945182 0.16042079031 -5.1780385971 -0.11297088861
          3.6801981926 -10.347847939 0.46578302979 9.4882850647 -12.587132454 0.58781975508
          4.1216263771 -12.230003357 -0.20506925881 12.538082123 -14.883547783 -0.6570661664
          0 0 0 0.33280438185 -4.902469635 0.29544433951
          12.541008949 -14.939696312 -0.32733893394 0.0045803799294 -1.0015971661 -0.0021669780836
          10.464061737 -14.570946693 -0.57952082157 5.6914768219 -12.223866463 0.22061318159
          0 0 0 0.11389303207 -3.5792870522 0.055302090943
          10.468689919 -14.628472328 -0.2886121273 0.0015410957858 -1.0358150005 0.00010422685591
          2.5089333057 -10.369307518 0.22607147694 0.40948694944 -6.9409828186 0.68338251114
          7.5476884842 -12.337193489 0.51714152098 0.17296548188 -5.1925468445 -0.00017274319544
          4.1245851517 -12.237810135 1.1037604963e-06 0.10446292162 -2.1473119259 0.07308858633
          1.8521914482 -10.608659744 -0.5144059062 0.010589392856 -2.1705157757 -0.0033771593589
          8.379901886 -14.299213409 -0.49603652954 -0.72833389044 -8.315530777 0.11150511354
          12.544528961 -14.957915306 -6.3519323703e-06 0 0 0
          1.8934577703 -10.603959084 -0.24316546321 10.47130394 -14.646529198 -4.5520228014e-06
          -6.9747853559e-05 -1.0450544357 3.0582075397e-06 8.3913383484 -14.356604576 -0.24545115232
          0.0046350802295 -2.2223742008 -0.00069809530396 0.92261642218 -9.0603294373 -0.18496331573
          1.5070722103 -8.7469158173 0.58936363459 1.9030376673 -10.609535217 3.232503559e-06
          0.30127996206 -6.8871774673 -0.12846420705 0.1603641957 -5.1775660515 0.11279109865
          3.0449016094 -12.329367638 -0.45847603679 8.3957834244 -14.372544289 -2.7037522159e-06
          5.6675868034 -12.190205574 0.44514101744 4.1216249466 -12.230007172 0.20507146418
          0.87419903278 -9.1654319763 -0.00016300102288 0.0021104565822 -2.2398993969 -2.2266238375e-05
          0.1449418664 -3.4939761162 0.095901295543 12.541007996 -14.939700127 0.32732617855
          6.2884187698 -14.090642929 -0.40687188506 0.26820105314 -7.0032134056 -0.10512768477
          0.021137723699 -3.530926466 -0.010715915821 3.082246542 -12.327061653 -0.21193623543
          2.4609379768 -10.362900734 0.47686803341 -0.34079641104 -7.15234375 0.96980625391
          0 0 0 0.017418961972 -3.5936572552 -0.0049893721007
          10.468688011 -14.628476143 0.28860294819 0.0015494823456 -1.0358109474 -9.9839329778e-05
          6.3039131165 -14.137005806 -0.20149943233 0.30139264464 -7.041574955 -5.1915329095e-05
          3.0987260342 -12.334503174 2.6506381801e-06 1.8934572935 -10.603965759 0.24317479134
          6.3047676086 -14.14699173 -8.9111824764e-07 0.015126813203 -3.6150958538 -6.9613015512e-05
          8.391336441 -14.356608391 0.2454456687 0.004659791477 -2.2223062515 0.00065774138784
          0.92300969362 -9.0601787567 0.18476943672 0.13108628988 -5.1082839966 0.1843085885
          4.0933685303 -12.221884727 0.40652275085 4.433701992 -14.02455616 -0.35377243161
          12.538078308 -14.883554459 0.65705323219 0 0 0
          0.068844206631 -5.0820674896 -0.007979221642 0.0045889005996 -1.0015720129 0.0021668458357
          10.464057922 -14.570954323 0.57951146364 0.26808273792 -7.0030312538 0.10495065153
          3.0822463036 -12.327065468 0.21194161475 4.4525780678 -14.029931068 -0.17741574347
          1.4999009371 -11.116165161 -0.4794074297 0.054903116077 -5.1661782265 -0.0051215933636
          0.017431182787 -3.5934932232 0.0048665064387 6.3039112091 -14.137009621 0.20149755478
          1.2967623472 -10.898445129 -0.23910723627 2.2210125923 -12.415154457 -0.44005489349
          0.61972039938 -8.5170450211 -0.22728258371 13.6456604 -17.00334549 -0.66378742456
          0 0 0 11.442349434 -16.686689377 -0.57951140404
          1.8521927595 -10.608670235 0.51441890001 0.010611263104 -2.1703867912 0.0033507992048
          8.379899025 -14.299220085 0.4960308373 0.40123039484 -8.7788619995 -0.021576922387
          2.2302656174 -12.413843155 -0.21159356833 -0.72835409641 -8.3154392242 -0.11171203852
          13.645301819 -17.064844131 -0.33066466451 0 0 0
          0.049130111933 -5.1915502548 -8.9113484137e-05 4.4446058273 -14.03010273 8.1514730255e-07
          -0.053159002215 -0.99249178171 0.046577610075 11.442440987 -16.748855591 -0.28909891844
          -0.040155015886 -1.0251950026 0.019824435934 1.0626138449 -10.676249504 -8.6724568973e-05
          9.2245826721 -16.4025383 -0.4922272861 0.49464213848 -8.9620914459 -0.00021895280224
          2.2207169533 -12.410288811 4.3088271013e-06 13.646543503 -17.08471489 -7.6625938163e-06
          0 0 0 -0.083493418992 -2.1512234211 0.060736980289
          9.226685524 -16.466743469 -0.24422594905 11.443416595 -16.76880455 -5.6253970797e-06
          0.30111724138 -6.886920929 0.12842316926 3.0449006557 -12.329374313 0.45848140121
          -0.039714258164 -1.0337823629 -1.4755441043e-05 -0.07516054064 -2.197704792 0.031823717058
          6.288415432 -14.090649605 0.40686970949 0.021133810282 -3.5306677818 0.010645912029
          0.14378990233 -6.7791595459 -0.0057164891623 3.5420153141 -14.144490242 -0.4097328186
          0.054867208004 -5.1659898758 0.0049511580728 4.4525766373 -14.029933929 0.17741727829
          0.12228297442 -6.8984036446 0.0033843589481 3.5524730682 -14.122994423 -0.18789868057
          1.297659874 -10.899334908 0.23913529515 9.2286272049 -16.486156464 -3.5163011489e-06
          -0.072678185999 -2.2130277157 -3.727494186e-05 6.9808764458 -16.148544312 -0.39479118586
          0.40139609575 -8.7787675858 0.021845303476 2.2302656174 -12.41384697 0.21160194278
          13.645299911 -17.064847946 0.33064928651 0 0 0
          -0.093790248036 -3.4888269901 0.068801157176 6.9885630608 -16.212530136 -0.1954562068
          11.442438126 -16.748859406 0.28908759356 -0.091702781618 -3.5463328362 0.036720700562
          0.10748478025 -6.944975853 -7.4697236414e-05 3.5435166359 -14.110251427 2.3641125608e-06
          -0.040146846324 -1.0251789093 -0.019851919264 9.226682663 -16.466747284 0.24421882629
          6.9922528267 -16.229440689 -1.4151979713e-06 -0.091445989907 -3.5661332607 -6.1420105339e-05
          4.4336996078 -14.024563789 0.3537736237 1.6430997849 -12.677080154 -0.43073222041
          -0.075147710741 -2.1976573467 -0.031893610954 0.068793386221 -5.0817666054 0.0078927977011
          0.43397420645 -11.282759666 -0.48358461261 1.6362041235 -12.685553551 -0.19703429937
          1.4996739626 -11.115822792 0.47931542993 0.60448092222 -11.210172653 -0.36803475022
          0.12223136425 -6.8982553482 -0.0034796185791 3.5524725914 -14.122998238 0.18790334463
          2.2210125923 -12.415160179 0.44006276131 0.61929953098 -8.5170955658 0.22704438865
          -0.081021174788 -5.0126109123 0.074344389141 4.8424916267 -15.943003654 -0.29470387101
          13.645655632 -17.003353119 0.66377186775 0 0 0
          11.442344666 -16.686697006 0.57949984074 -0.08332836628 -5.0805783272 0.040685024112
          1.6126801968 -12.688257217 1.1725883269e-05 0.1577283293 -8.7028827667 -0.034929197282
          2.6839194298 -14.21217823 -0.41213768721 4.8578858376 -15.976910591 -0.15158441663
          -0.053158584982 -0.99246108532 -0.04660037905 0.63786900043 -11.07433033 0.0026999623515
          6.9885606766 -16.212533951 0.19545322657 -0.091698132455 -3.546254158 -0.036833591759
          2.6559920311 -14.18473053 -0.19274255633 0.18172757328 -8.8039884567 -0.020811440423
          9.2245779037 -16.402547836 0.49221989512 -0.086658857763 -5.1070160866 -6.9827314292e-05
          4.8497896194 -15.98511982 5.6478097576e-07 -0.083490841091 -2.1511490345 -0.060791291296
          2.6191728115 -14.155968666 3.8836606109e-06 14.75981617 -19.27012825 -0.66675925255
          0 0 0 0.17181155086 -8.8434734344 0.00011013218318
          14.758598328 -19.332187653 -0.33263066411 0 0 0
          1.636207819 -12.685545921 0.19704416394 12.422697067 -18.953557968 -0.58280956745
          0.14367495477 -6.7790093422 0.0056386128999 3.5420138836 -14.144495964 0.40973725915
          -0.11115926504 -0.95823335648 0.096016705036 0.60261964798 -11.210612297 0.3668833077
          12.420847893 -19.015869141 -0.29127407074 -0.08306184411 -0.99054920673 0.04000788182
          6.9808721542 -16.148551941 0.39478778839 14.75813961 -19.352426529 -9.2659511211e-06
          -0.083339042962 -5.0804877281 -0.040810003877 10.080554008 -18.667413712 -0.49875506759
          -0.17907704413 -2.0885446072 0.12505368888 4.8578839302 -15.976913452 0.1515852958
          0 0 0 4.0102443695 -15.93269062 -0.37276059389
          -0.054885856807 -6.7413282394 0.073002643883 -0.093792997301 -3.4887104034 -0.068885989487
          -0.1602538377 -2.1337270737 0.064170695841 10.076485634 -18.732131958 -0.24848082662
          12.420594215 -19.036464691 -6.9398070082e-06 2.6559917927 -14.184733391 0.19275009632
          -0.05873446539 -6.8110079765 0.040362957865 3.9908099174 -15.894696236 -0.17668767273
          0.18155395985 -8.8040122986 0.020758936182 -0.081042960286 -0.99836075306 -1.7020543964e-05
          0.65861737728 -12.648360252 -0.39246106148 10.076392174 -18.752891541 -4.5207530093e-06
          1.6431037188 -12.677081108 0.43072322011 -0.15347142518 -2.1480996609 -3.4269043681e-05
          -0.059508372098 -6.8428125381 -4.6597717301e-05 0.78820455074 -12.741306305 -0.20813474059
          3.957303524 -15.870547295 2.0616096208e-06 0.43431186676 -11.282155037 0.48212960362
          14.758595467 -19.332193375 0.33261206746 7.7134542465 -18.404205322 -0.40438893437
          0.37597507238 -10.741166115 -0.020509406924 0 0 0
          -0.22765268385 -3.3998031616 0.14034695923 1.9506831169 -14.315814972 -0.38328790665
          -0.21725776792 -3.453306675 0.072901077569 7.7083411217 -18.47461319 -0.19961115718
          12.420845032 -19.015874863 0.29126012325 0.33320340514 -10.857593536 -0.050385639071
          1.8888601065 -14.290338516 -0.17819677293 -0.083057813346 -0.99053686857 -0.040039170533
          -0.081039592624 -5.012491703 -0.074440404773 4.8424882889 -15.94301033 0.29470399022
          0.94579952955 -12.905162811 5.9642970882e-05 0.15767173469 -8.7027549744 0.034867156297
          2.6839189529 -14.212184906 0.41214466095 7.7084841728 -18.494785309 -2.0909517389e-06
          10.076482773 -18.732135773 0.2484716922 0.3458802104 -10.87584877 -0.00027024728479
          -0.1602486968 -2.1337013245 -0.064235508442 -0.21413342655 -3.4700083733 -4.7933397582e-05
          -0.058767482638 -6.8109498024 -0.040457297117 3.9908092022 -15.894699097 0.17669166625
          1.8200451136 -14.25365448 5.0313001339e-06 3.1780679226 -15.941155434 -0.4058803916
          -0.026406878605 -8.6308507919 0.062954746187 3.1230404377 -15.910750389 -0.18464459479
          -0.039142299443 -8.7090139389 0.035010974854 14.759810448 -19.270137787 0.66674041748
          0 0 0 0.78646373749 -12.739911079 0.20832659304
          -0.25655928254 -4.8978452682 0.14781874418 5.3679976463 -18.128355026 -0.2639311552
          -0.25255784392 -4.9574804306 0.078892692924 12.422691345 -18.953567505 0.58279532194
          -0.1111652106 -0.95821642876 -0.096042960882 5.357483387 -18.201877594 -0.14201055467
          7.7083382607 -18.474617004 0.19960682094 0.33328056335 -10.857036591 0.050772372633
          -0.21725457907 -3.4532694817 -0.072991527617 1.888859272 -14.290341377 0.17820703983
          3.0662739277 -15.876784325 3.2799639484e-06 -0.040056020021 -8.7405662537 -3.9696577005e-05
          10.080548286 -18.667423248 0.49874562025 -0.17908194661 -2.088511467 -0.12510733306
          4.0102434158 -15.932696342 0.37276419997 -0.24958750606 -4.9779319763 -5.1045004511e-05
          -0.054896231741 -6.7412314415 -0.073072344065 5.3455386162 -18.22451973 2.6529502861e-07
          15.869738579 -21.68173027 -0.66503340006 0 0 0
          0.65893751383 -12.648681641 0.39262035489 3.123039484 -15.91075325 0.1846511662
          0 0 0 13.403012276 -21.368469238 -0.58579170704
          0.64982306957 -12.5558424 -0.16653689742 -0.039125345647 -8.7089185715 -0.035030823201
          -0.16919282079 -0.89711815119 0.14889541268 1.2801879644 -14.526636124 -0.37116664648
          15.869007111 -21.74098587 -0.33229407668 7.7134490013 -18.404214859 0.4043841958
          13.400904655 -21.427497864 -0.29310768843 -0.12618523836 -0.92875438929 0.06184918806
          0.37572017312 -10.741232872 0.020544007421 0.61371767521 -12.709154129 -0.082287855446
          -0.22765526175 -3.3997581005 -0.14042074978 4.5081458092 -17.738948822 -0.37096774578
          -0.25255894661 -4.95744133 -0.078988850117 1.950682044 -14.315820694 0.38329818845
          -0.24605193734 -6.596306324 0.14428579807 5.357480526 -18.201883316 0.14201079309
          1.2644035816 -14.533493042 -0.15306663513 -0.24917948246 -6.6634631157 0.077898301184
          4.4642381668 -17.688455582 -0.17691904306 10.939283371 -21.087467194 -0.50838136673
          15.867907524 -21.760566711 -1.1209059267e-05 -0.27411097288 -1.9871816635 0.19074425101
          0 0 0 10.933130264 -21.148403168 -0.25389012694
          -0.24455086887 -2.0310852528 0.096617698669 13.39991951 -21.447250366 -8.5421552285e-06
          2.3491420746 -15.991222382 -0.38500398397 0.60458987951 -12.75084877 -4.230297418e-05
          1.1969562769 -14.504515648 -6.4053410824e-06 -0.017911005765 -10.556487083 0.064810991287
          -0.12315897644 -0.9348230958 -1.3176786524e-05 2.2430989742 -15.964221954 -0.17679712176
          4.4192476273 -17.656074524 1.7039152453e-06 -0.021604286507 -10.647454262 0.03714390099
          -0.25329381227 -6.6842346191 -4.2669351387e-05 3.1780660152 -15.941160202 0.4058868587
          10.931814194 -21.169229507 -5.7640818341e-06 -0.026419689879 -8.6307792664 -0.062966346741
          -0.23043735325 -2.0451881886 -2.4954075343e-05 8.4591617584 -20.834129333 -0.42571312189
          15.86900425 -21.740991592 0.33227157593 2.1270370483 -15.911393166 4.3807435759e-06
          -0.36469513178 -3.2775449753 0.21096886694 -0.2565549314 -4.8977966309 -0.14789550006
          -0.031985856593 -10.694674492 1.2021334442e-05 5.367992878 -18.128364563 0.26393043995
          0 0 0 8.4451618195 -20.899787903 -0.21275250614
          -0.34569355845 -3.3263969421 0.10948164761 13.400901794 -21.427503586 0.29309052229
          0.61372315884 -12.708601952 0.082399263978 1.2643812895 -14.533496857 0.1530803591
          -0.12618342042 -0.9287481904 -0.061873491853 4.4642372131 -17.688457489 0.17692233622
          -0.24917346239 -6.663421154 -0.077975474298 10.933127403 -21.148406982 0.25387850404
          8.4407682419 -20.921983719 -2.9399081996e-06 3.7654819489 -17.716527939 -0.43373793364
          -0.21102175117 -8.548169136 0.13487863541 -0.33894619346 -3.3445341587 -3.2990530599e-05
          -0.2445486933 -2.0310735703 -0.096665367484 -0.21987199783 -8.6170339584 0.065567545593
          2.243098259 -15.964224815 0.17680600286 3.649263382 -17.676374435 -0.19115062058
          -0.021612966433 -10.647324562 -0.037184499204 5.9717998505 -20.58133316 -0.31483960152
          15.869732857 -21.681739807 0.66501063108 0 0 0
          -0.45567327738 -4.7487783432 0.23720048368 5.9357881546 -20.656368256 -0.16878908873