<?xml version="1.0"?>
<VTKFile type="UnstructuredGrid" version="0.1" byte_order="LittleEndian" header_type="UInt32" compressor="vtkZLibDataCompressor">
  <UnstructuredGrid>
    <Piece NumberOfPoints="6405" NumberOfCells="4800">
      <PointData>
        <DataArray type="Float32" Name="DISPLACEMENT" NumberOfComponents="3" ComponentName0="X-DISPLACEMENT" ComponentName1="Y-DISPLACEMENT" ComponentName2="Z-DISPLACEMENT" format="ascii" RangeMin="0" RangeMax="258.76083165">
          0 0 0 0 0 0
          2.0201015472 -1.2446500063 -0.93384134769 0 0 0
          1.3011869192 -0.74017173052 -0.72324848175 0 0 0
          1.8453401327 -1.3722627163 -0.37113681436 1.1324552298 -0.8452206254 -0.29504042864
          0 0 0 3.6198301315 -2.281485796 -0.95484566689
          0 0 0 3.569085598 -2.4311163425 -0.49315330386
          2.6121246815 -1.8760563135 -0.79618424177 0 0 0
          0 0 0 1.851842761 -1.4156270027 -5.1902463838e-07
          0.9468382597 -0.50658625364 -0.55793350935 1.1278892756 -0.8665651083 -2.6878115023e-07
          2.5573716164 -1.9958174229 -0.40675854683 0.8139564395 -0.60403782129 -0.22575514019
          3.5288603306 -2.4733371735 -1.3268443126e-06 1.9054583311 -1.5320620537 -0.62271434069
          0 0 0 2.522667408 -2.0354342461 -8.3682925833e-07
          1.847645998 -1.6447751522 -0.31983011961 0 0 0
          5.0693206787 -3.6064698696 -0.89361417294 0 0 0
          0.80819559097 -0.6222962141 3.9002880925e-08 0 0 0
          0 0 0 1.8453398943 -1.3722630739 0.37113574147
          3.8442149162 -3.2183051109 -0.7598233223 5.0850839615 -3.7140650749 -0.45607998967
          0.6974285841 -0.33879721165 -0.37856638432 1.1324547529 -0.84522116184 0.29503983259
          3.8570785522 -3.3201913834 -0.38729429245 0.60952836275 -0.44769394398 -0.15851080418
          1.8166954517 -1.6754052639 -2.4709245849e-07 3.5690848827 -2.4311172962 0.49315056205
          0 0 0 0 0 0
          1.3058084249 -1.3049097061 -0.43056410551 2.8735098839 -2.9119324684 -0.62649047375
          5.0722312927 -3.7534737587 -2.4237608613e-06 2.5573704243 -1.9958184958 0.40675675869
          2.8646214008 -3.0092358589 -0.31822243333 0.81395602226 -0.60403853655 0.22575514019
          3.8482351303 -3.3544921875 -1.6923237354e-06 1.245298624 -1.4167948961 -0.22286856174
          0.60693359375 -0.46314150095 5.3804080835e-07 0 0 0
          6.4115762711 -5.1008172035 -0.79993999004 0 0 0
          5.0061922073 -4.7489256859 -0.70134705305 1.8476449251 -1.6447764635 0.31982952356
          6.4475340843 -5.1786675453 -0.40528550744 2.0201005936 -1.2446507215 0.933840096
          0 0 0 0 0 0
          1.2219798565 -1.4445499182 4.7480850185e-07 2.8545639515 -3.0392289162 -8.6814560518e-07
          0.27268567681 -0.2682518065 -0.15924932063 5.0381760597 -4.8263626099 -0.35370892286
          1.3011857271 -0.7401728034 0.72324764729 1.9946231842 -2.7074949741 -0.488514781
          0 0 0 5.085082531 -3.7140665054 0.45607504249
          0.22802008688 -0.40417206287 -0.083188377321 1.9617840052 -2.7955887318 -0.24953253567
          3.8570768833 -3.3201930523 0.38729083538 0.60952782631 -0.44769486785 0.15851177275
          3.8123800755 -4.4730386734 -0.60418742895 0.45664128661 -1.1764268875 -0.24144974351
          6.4483909607 -5.2063598633 -3.780965244e-06 3.6198282242 -2.2814877033 0.95484268665
          0 0 0 0 0 0
          3.8256313801 -4.547970295 -0.30442661047 2.6121222973 -1.8760584593 0.79618227482
          5.0429258347 -4.853600502 -2.8382071378e-06 0.39316672087 -1.2881531715 -0.13404507935
          0.94683742523 -0.50658774376 0.55793327093 0.23244327307 -0.43764394522 1.2812702153e-06
          1.9514137506 -2.8235864639 9.4465654854e-08 2.8646199703 -3.0092377663 0.31822064519
          1.2452975512 -1.4167963266 0.22286944091 3.8263599873 -4.5737996101 -1.8082354245e-06
          1.9054564238 -1.5320645571 0.62271356583 0.38021725416 -1.3166434765 1.2899295143e-06
          2.7059812546 -4.2942886353 -0.51467519999 6.447532177 -5.1786694527 0.40527784824
          5.0693173409 -3.6064727306 0.89360892773 0 0 0
          7.6411962509 -6.7177548409 -0.72407847643 0 0 0
          0 0 0 0.9086779356 -2.553848505 -0.39759778976
          2.7015497684 -4.3622345924 -0.26000496745 7.6756296158 -6.7755222321 -0.36424720287
          6.094648838 -6.3917355537 -0.64920818806 5.0381741524 -4.8263645172 0.35370317101
          0.036147955805 -0.40423581004 -0.1730363667 0 0 0
          3.84421134 -3.2183084488 0.75981962681 0.69742792845 -0.33879908919 0.37856709957
          0.86100059748 -2.6250171661 -0.19443383813 0.22801931202 -0.40417331457 0.083190754056
          -0.053973913193 -0.46316227317 -0.057925093919 1.9617823362 -2.7955906391 0.24953265488
          6.1264209747 -6.452105999 -0.32502871752 3.8256292343 -4.5479726791 0.30442291498
          2.6985044479 -4.3886818886 -6.3481365942e-07 7.6818423271 -6.7963204384 -5.3989119806e-06
          0.25756433606 -1.4888855219 -0.37366515398 0.39316529036 -1.2881548405 0.13404758275
          0 0 0 4.7158513069 -6.131696701 -0.57249909639
          1.305806756 -1.3049126863 0.43056476116 2.8735067844 -2.9119360447 0.62648838758
          0.85177749395 -2.6523797512 1.1896283922e-06 6.1345529556 -6.4732995033 -4.2763545025e-06
          -0.016431333497 -0.53149092197 2.5959877803e-06 0.2216771096 -1.4645278454 -0.13929872215
          4.7365322113 -6.1920089722 -0.28691968322 6.4115719795 -5.1008210182 0.79993200302
          0 0 0 1.6240558624 -4.1603298187 -0.4566591382
          5.006187439 -4.7489295006 0.70134103298 0.25948697329 -1.5104067326 3.1333754578e-06
          1.6116536856 -4.2243776321 -0.2168032676 4.7413687706 -6.213083744 -3.0675337257e-06
          0.27268475294 -0.26825430989 0.15925131738 2.7015476227 -4.3622374535 0.26000365615
          3.4452390671 -5.9394340515 -0.49737861753 7.6756267548 -6.7755241394 0.36423632503
          0.45658990741 -2.6313939095 -0.38904502988 1.9946203232 -2.7074990273 0.48851466179
          0 0 0 0.86099863052 -2.6250193119 0.19443617761
          3.4558825493 -5.9990420341 -0.24949468672 -0.053975880146 -0.46316376328 0.057929821312
          0.52382695675 -2.7111265659 -0.16913448274 6.1264181137 -6.4521083832 0.32502004504
          3.8123757839 -4.4730434418 0.60418349504 0.45663914084 -1.1764302254 0.24145202339
          8.7809820175 -8.4158306122 -0.67219173908 0 0 0
          1.5981698036 -4.2448124886 7.9966332578e-07 7.1185936928 -8.1090307236 -0.60845768452
          8.8074674606 -8.464220047 -0.33678981662 0 0 0
          -0.064956866205 -0.65791517496 -0.018807629123 7.1436209679 -8.1602087021 -0.30347934365
          3.4554228783 -6.0190477371 -1.7196748558e-06 -0.10291761905 -0.71088534594 -0.013590335846
          0.22167423368 -1.4645290375 0.13930477202 0.57032358646 -2.7848272324 3.0918461107e-06
          4.7365288734 -6.1920118332 0.28691348433 5.5832567215 -7.8631906509 -0.54012352228
          -0.31028902531 -1.5625298023 -0.12294844538 8.8145141602 -8.4813146591 -7.2835596256e-06
          0 0 0 -0.45904093981 -1.5624815226 -0.025422530249
          5.6025547981 -7.9151678085 -0.26877740026 7.1508774757 -8.1775579453 -6.0108254729e-06
          -0.11881931871 -0.71182405949 3.3924106901e-06 2.705976963 -4.2942938805 0.51467370987
          2.2933065891 -5.7815899849 -0.40976625681 7.6411905289 -6.7177591324 0.72406727076
          0 0 0 0.79603546858 -4.1370410919 -0.26760008931
          1.6116513014 -4.2243804932 0.21680483222 0.90867465734 -2.553853035 0.39759993553
          6.0946426392 -6.3917403221 0.64919930696 0.036146562546 -0.4042391181 0.17304037511
          0.81376755238 -4.2405924797 -0.14890109003 2.2912054062 -5.8459057808 -0.2052809149
          3.4558796883 -5.999045372 0.24949118495 0.52382427454 -2.7111289501 0.16914056242
          5.6069450378 -7.9323310852 -4.6383861445e-06 -0.51679098606 -1.6290528774 9.2282662081e-06
          4.1688451767 -7.6926555634 -0.4715462923 -0.06315536797 -2.8499526978 -0.27699536085
          0.25756090879 -1.4888896942 0.37367108464 8.8074636459 -8.464222908 0.33677515388
          4.7158455849 -6.1317019463 0.57249265909 0 0 0
          2.2852900028 -5.8609433174 -1.4899050882e-07 0.8180270195 -4.2588014603 2.7069670523e-06
          4.1811294556 -7.7416572571 -0.2327812165 7.14361763 -8.1602106094 0.30346724391
          -0.36582326889 -2.7043147087 -0.087064102292 -0.10292036831 -0.7108861804 0.013595687225
          1.6240515709 -4.1603360176 0.45666053891 4.1821174622 -7.7560195923 -3.1555496207e-06
          5.6025509834 -7.9151706696 0.26876801252 -0.45905488729 -1.5624853373 0.025435900316
          -0.52357578278 -2.6538827419 2.4548730835e-06 9.8623991013 -10.183719635 -0.64124941826
          0 0 0 9.8801355362 -10.229832649 -0.32048335671
          3.4452335835 -5.9394402504 0.49737492204 8.0921497345 -9.8876771927 -0.57935464382
          0.45658573508 -2.6313993931 0.38905110955 1.0179080963 -5.6579589844 -0.27457788587
          -0.031346492469 -0.84325891733 -0.019811676815 0.81376463175 -4.2405953407 0.14890636504
          2.2912025452 -5.8459095955 0.20528058708 0 0 0
          8.1098852158 -9.9359064102 -0.28809630871 1.0008391142 -5.7340431213 -0.15054056048
          -0.059043783695 -0.86998343468 -0.0012624510564 2.8693890572 -7.6010403633 -0.39897707105
          0.15634208918 -4.3726830482 -0.3143030405 8.7809743881 -8.4158353806 0.67217677832
          0 0 0 7.1185865402 -8.1090364456 0.60844534636
          9.8860425949 -10.24562645 -9.4527731562e-06 0.10163185745 -4.3963313103 -0.12762838602
          2.8634991646 -7.6362190247 -0.19996573031 -0.064959466457 -0.65791726112 0.018810840324
          6.4051237106 -9.6562185287 -0.51207005978 -0.067115522921 -1.7708985806 -0.082760900259
          0 0 0 4.1811256409 -7.7416605949 0.2327748239
          -0.3658477664 -2.7043001652 0.087070219219 8.1156024933 -9.9514694214 -8.0461841208e-06
          1.0062826872 -5.7517113686 1.5684805703e-06 6.4183459282 -9.7016630173 -0.25317215919
          -0.10150152445 -1.8105384111 -0.039246361703 -0.070264533162 -0.88671433926 2.6659554351e-06
          5.5832490921 -7.863196373 0.54011392593 -0.31029906869 -1.5625298023 0.12295088172
          2.8607070446 -7.646009922 -1.5703185454e-06 0.13274136186 -4.4434270859 4.5941210374e-06
          2.2933011055 -5.7815971375 0.40976577997 6.4193916321 -9.713095665 -6.5332269514e-06
          -0.11742376536 -1.8261637688 3.7246891225e-06 0.79603022337 -4.1370477676 0.26760515571
          9.8801307678 -10.229834557 0.32046434283 4.8288693428 -9.5230712891 -0.44385901093
          0 0 0 -0.14588004351 -2.9303848743 -0.15162429214
          4.8327693939 -9.5621576309 -0.21508778632 8.1098804474 -9.9359092712 0.28808012605
          -0.059045493603 -0.86998480558 0.001267032465 1.0008357763 -5.7340464592 0.15054373443
          -0.16547207534 -2.9411606789 -0.092902690172 4.1688380241 -7.6926622391 0.47153967619
          1.4732067585 -7.5229945183 -0.38875153661 2.8634958267 -7.6362228394 0.19996258616
          -0.063159160316 -2.8499515057 0.27700635791 0.10163448006 -4.3963403702 0.12763772905
          0.42602995038 -5.9803233147 -0.42519983649 1.4315607548 -7.5375008583 -0.17630545795
          4.8246879578 -9.5736970901 -4.8674601203e-06 6.4183416367 -9.7016658783 0.25315898657
          -0.10150310397 -1.8105387688 0.039253294468 0.39531099796 -5.935833931 -0.14478136599
          -0.1790587306 -2.9149746895 3.5451807889e-06 10.913067818 -12.029087067 -0.62572318316
          0 0 0 -0.016812548041 -0.90383571386 -0.00045247047092
          1.4073178768 -7.541829586 2.7526957069e-07 3.381196022 -9.4928092957 -0.40622246265
          9.0354118347 -11.736179352 -0.56035739183 9.8623905182 -10.183725357 0.64123016596
          0 0 0 0 0 0
          0.40999037027 -5.9585719109 3.6431790704e-06 -0.15079517663 -4.3940153122 -0.13193385303
          10.923561096 -12.076590538 -0.3120533824 3.3798890114 -9.5165691376 -0.19573636353
          9.0458545685 -11.785056114 -0.27888074517 8.0921421051 -9.8876829147 0.57933819294
          -0.025934942067 -0.92556232214 0.00038522022078 1.0179021358 -5.6579661369 0.27458116412
          -0.031346891075 -0.84326028824 0.01981494762 -0.22353342175 -4.4333658218 -0.11263167113
          4.8327646255 -9.5621614456 0.21507789195 -0.16547326744 -2.941157341 0.092911683023
          7.1917419434 -11.498034477 -0.4908759594 2.8693823814 -7.6010484695 0.3989738822
          0.15634803474 -4.3727006912 0.31431159377 0 0 0
          -0.067164227366 -1.9034737349 -0.02856404148 10.92784977 -12.092242241 -1.1917925804e-05
          -0.027758074924 -0.9344587326 1.5889195311e-06 3.3737556934 -9.5283145905 -3.2160933188e-06
          7.2027392387 -11.542835236 -0.24108994007 6.4051151276 -9.6562252045 0.51205658913
          9.0494451523 -11.800425529 -1.0389643649e-05 -0.067116983235 -1.7708976269 0.082767814398
          -0.24868506193 -4.4151329994 5.1037454796e-06 -0.083072699606 -1.9379146099 -0.013949638233
          1.4315581322 -7.5375056267 0.1763061285 0.39530777931 -5.9358377457 0.14478884637
          0.68537694216 -7.6800060272 -0.40497002006 7.2063279152 -11.552686691 -8.7525640993e-06
          -0.084077849984 -1.9475326538 2.7562016385e-06 0.72294521332 -7.7077178955 -0.18299631774
          5.4293570518 -11.37137413 -0.41627588868 0 0 0
          -0.14040482044 -3.0839383602 -0.054563589394 10.923556328 -12.076593399 0.31202945113
          -0.02593502216 -0.92556267977 -0.00038229115307 3.3798847198 -9.5165729523 0.19572986662
          5.4047722816 -11.396199226 -0.20680628717 4.8288602829 -9.5230779648 0.44384866953
          9.0458498001 -11.785058975 0.27885988355 2.123816967 -9.4920139313 -0.4112688899
          -0.32092314959 -6.2394208908 -0.42412739992 -0.1458850801 -2.9303820133 0.15163427591
          -0.16117157042 -3.1351780891 -0.030630949885 -0.22353926301 -4.4333672523 0.11264236271
          2.0862116814 -9.4954767227 -0.19469439983 -0.30238345265 -6.2057981491 -0.22000998259
          0.74143385887 -7.7415304184 2.3747231808e-06 1.4732011557 -7.5230031013 0.38875246048
          7.2027339935 -11.54283905 0.2410723269 0.4260237813 -5.9803314209 0.4252076149
          5.3690233231 -11.391001701 -7.0477817644e-06 -0.083072990179 -1.9379141331 0.013955181465
          -0.16740177572 -3.1448204517 3.7118609271e-06 2.0380606651 -9.4881105423 -1.3616809156e-06
          -0.28613129258 -6.1816344261 5.5836185311e-06 -0.23370729387 -4.5401024818 -0.078859716654
          3.8704810143 -11.346209526 -0.37385031581 10.913058281 -12.029092789 0.62569898367
          0 0 0 0.72294181585 -7.7077226639 0.18300126493
          -0.016811542213 -0.90383577347 0.00045512561337 -0.24332000315 -4.5946936607 -0.04405464232
          3.3811879158 -9.492816925 0.40621575713 9.035402298 -11.736186028 0.56033629179
          3.8449759483 -11.368059158 -0.18169000745 11.95124054 -13.969338417 -0.61895668507
          0 0 0 -0.15080137551 -4.3940200806 0.1319424361
          11.956272125 -14.018292427 -0.30854135752 -0.043734885752 -0.9290946126 0.02566414699
          9.9628143311 -13.676273346 -0.55166381598 5.4047660828 -11.396203041 0.20679208636
          0 0 0 -0.16117301583 -3.1351778507 0.030638299882
          9.9679727554 -13.726127625 -0.27492421865 -0.039963934571 -0.95061612129 0.010901572183
          2.0862088203 -9.4954814911 0.19469171762 -0.3023866415 -6.2058024406 0.2200217247
          7.1917319298 -11.498041153 0.4908580482 -0.24939233065 -4.6066408157 4.5782594498e-06
          3.8053514957 -11.379817963 -5.3135104281e-06 -0.067163571715 -1.9034727812 0.028569158167
          0.9488928318 -9.4897499084 -0.32887151837 -0.094234675169 -1.9699084759 0.023284845054
          7.9869279861 -13.422739029 -0.4803442657 -0.055939462036 -7.9837551117 -0.42043429613
          11.958556175 -14.034250259 -1.4661927707e-05 0 0 0
          0.95499932766 -9.5162143707 -0.1866980195 9.9704370499 -13.741843224 -1.3021960513e-05
          -0.040380306542 -0.95708972216 9.8691862149e-07 7.9906754494 -13.471818924 -0.23860156536
          -0.096732094884 -2.0053503513 0.012190161273 -0.059729669243 -7.9798355103 -0.18455585837
          0.68537008762 -7.6800150871 0.40497455001 0.96640616655 -9.5161952972 4.8244680784e-07
          -0.23225687444 -6.182103157 -0.061431154609 -0.24332170188 -4.5946946144 0.044063705951
          2.5840666294 -11.351652145 -0.36863151193 7.9924154282 -13.486746788 -1.1296026969e-05
          5.4293451309 -11.37138176 0.41626146436 3.8449707031 -11.368063927 0.18167938292
          -0.026780050248 -7.996263504 4.0673307922e-06 -0.096938744187 -2.0164685249 1.9542114842e-06
          -0.14040564001 -3.0839369297 0.054570756853 11.956266403 -14.018295288 0.30851197243
          5.9787774086 -13.238025665 -0.41133114696 -0.25910297036 -6.2669882774 -0.058094296604
          -0.16070254147 -3.1813168526 0.017647346482 2.5813810825 -11.365175247 -0.18864756823
          2.1238100529 -9.4920225143 0.41126611829 -0.3209297061 -6.2394294739 0.42413955927
          0 0 0 -0.1633798331 -3.2276873589 0.0094607397914
          9.9679679871 -13.726131439 0.27489808202 -0.039963867515 -0.95061600208 -0.010899689049
          5.9732604027 -13.270424843 -0.20568864048 -0.27417206764 -6.2628936768 4.8864039854e-06
          2.5737433434 -11.3787117 -3.3734972931e-06 0.9549959898 -9.5162191391 0.18669903278
          5.9648313522 -13.271201134 -9.580697224e-06 -0.16509085894 -3.2420220375 2.8275158002e-06
          7.9906697273 -13.471821785 0.23857888579 -0.096732087433 -2.0053501129 -0.012186302803
          -0.059732224792 -7.9798402786 0.18456418812 -0.23370988667 -4.5401029587 0.078868255019
          3.8704712391 -11.346218109 0.37383979559 4.2693181038 -13.222812653 -0.35662931204
          11.951230049 -13.969345093 0.61892706156 0 0 0
          -0.21635240316 -4.5986456871 0.023112408817 -0.043733928353 -0.92909407616 -0.025662250817
          9.9628038406 -13.676280022 0.55163747072 -0.25910526514 -6.2669906616 0.058103922755
          2.5813775063 -11.365180969 0.1886408627 4.2077112198 -13.205638885 -0.18672008812
          0.22907970846 -9.7820262909 -0.44529882073 -0.22116807103 -4.6552371979 0.010773685761
          -0.16338008642 -3.2276873589 -0.0094551704824 5.973253727 -13.270428658 0.20566946268
          0.24005031586 -9.7507667542 -0.18171544373 1.2922741175 -11.322506905 -0.38568720222
          -0.27431321144 -7.890748024 -0.063624672592 12.982064247 -16.017162323 -0.61571776867
          0 0 0 10.885603905 -15.724497795 -0.54972445965
          0.94888585806 -9.4897584915 0.32887324691 -0.094233676791 -1.969907403 -0.023281103
          7.9869170189 -13.422746658 0.48032131791 -0.32084110379 -8.0007667542 -0.096188671887
          1.2879700661 -11.317997932 -0.18184365332 -0.055945321918 -7.9837641716 0.42044299841
          12.984060287 -16.065856934 -0.30724209547 0 0 0
          -0.22544807196 -4.6719756126 3.5074185689e-06 4.1108965874 -13.162732124 -7.6066662587e-06
          -0.07222712785 -0.92669349909 0.056461352855 10.88704586 -15.773838043 -0.27433651686
          -0.057060755789 -0.94892370701 0.023378966376 0.26324471831 -9.7775878906 1.9373812847e-06
          8.7879066467 -15.464935303 -0.4826771915 -0.30692341924 -8.0054111481 4.53740995e-06
          1.2884589434 -11.31519413 -1.3377141386e-06 12.984879494 -16.081798553 -1.7640486476e-05
          0 0 0 -0.12659130991 -1.9745969772 0.070392981172
          8.788064003 -15.514637947 -0.24122475088 10.887962341 -15.79006958 -1.5895713659e-05
          -0.23226010799 -6.1821060181 0.0614393875 2.5840592384 -11.351661682 0.36862507463
          -0.056417375803 -0.95508742332 5.2904999848e-07 -0.11770801991 -2.0081727505 0.036315254867
          5.9787650108 -13.238033295 0.41131198406 -0.16070225835 -3.1813156605 -0.017642084509
          -0.26838231087 -6.2043390274 0.03286421299 3.0029881001 -13.258356094 -0.38203731179
          -0.22116883099 -4.6552376747 -0.010766822845 4.2077054977 -13.205643654 0.18670497835
          -0.27720829844 -6.2724590302 0.015774991363 2.9977619648 -13.238992691 -0.18932081759
          0.24004848301 -9.7507715225 0.18171985447 8.7892007828 -15.531373024 -1.4087331692e-05
          -0.11438085884 -2.0191059113 1.1684840047e-06 6.6548099518 -15.229880333 -0.41701361537
          -0.32084366679 -8.0007696152 0.096197105944 1.2879687548 -11.318003654 0.18184119463
          12.984054565 -16.065860748 0.30720674992 0 0 0
          -0.17211723328 -3.184278965 0.077318973839 6.6621346474 -15.278205872 -0.20910221338
          10.887040138 -15.773841858 0.27430465817 -0.16844382882 -3.2259304523 0.04010816291
          -0.28008267283 -6.2973690033 3.8621033127e-06 2.9896216393 -13.217655182 -5.2307264014e-06
          -0.057060625404 -0.9489235878 -0.023377921432 8.7880582809 -15.514641762 0.24119652808
          6.6714439392 -15.296132088 -1.2173409232e-05 -0.16733448207 -3.2397208214 1.7979830318e-06
          4.2693076134 -13.222822189 0.35661429167 0.50127983093 -11.506788254 -0.395036906
          -0.11770778149 -2.0081725121 -0.036312911659 -0.21635301411 -4.5986452103 -0.023106086999
          -0.50892013311 -10.045737267 -0.44789788127 0.53524780273 -11.513022423 -0.18349716067
          0.22907434404 -9.782034874 0.44530415535 -0.45567545295 -10.027713776 -0.23193359375
          -0.27720934153 -6.2724604607 -0.015767570585 2.9977586269 -13.238996506 0.18931053579
          1.2922703028 -11.322517395 0.38568556309 -0.27431699634 -7.8907523155 0.063631735742
          -0.20835803449 -4.5856194496 0.082694768906 4.5952439308 -15.053308487 -0.35662007332
          12.982052803 -16.017169952 0.61568230391 0 0 0
          10.885591507 -15.724504471 0.54969245195 -0.20681734383 -4.6314277649 0.043684244156
          0.53374052048 -11.507038116 7.0164418275e-07 -0.34888964891 -8.0142364502 0.0039999871515
          1.8830915689 -13.27411747 -0.38636857271 4.5749969482 -15.077897072 -0.20202755928
          -0.072226367891 -0.92669290304 -0.056460168213 -0.44518005848 -10.024241447 1.6455143168e-06
          6.6621274948 -15.278209686 0.20907782018 -0.16844367981 -3.2259304523 -0.040104601532
          1.8610143661 -13.261175156 -0.18026350439 -0.35195678473 -8.0862588882 0.0078055597842
          8.7878952026 -15.464942932 0.48264881968 -0.2075175494 -4.6483559608 2.323940862e-06
          4.5330443382 -15.086976051 -9.8997770692e-06 -0.12659034133 -1.9745959044 -0.070390634239
          1.8238704205 -13.237124443 -2.9466348224e-06 14.005987167 -18.173469543 -0.61313903332
          0 0 0 -0.36366665363 -8.1042718887 3.6792960145e-06
          14.006749153 -18.22069931 -0.30620479584 0 0 0
          0.53524559736 -11.513028145 0.18349891901 11.805187225 -17.882858276 -0.5497187376
          -0.26838386059 -6.2043399811 -0.032857477665 3.0029814243 -13.258365631 0.38202723861
          -0.10084512085 -0.8943721652 0.089105300605 -0.45567834377 -10.027719498 0.23194009066
          11.805029869 -17.93006134 -0.27482810616 -0.074430800974 -0.91743844748 0.037128735334
          6.6547961235 -15.229888916 0.41698902845 14.006709099 -18.236288071 -2.080203376e-05
          -0.20681737363 -4.6314282417 -0.043679673225 9.6044616699 -17.618419647 -0.48756408691
          -0.15720401704 -1.9170321226 0.11745003611 4.574988842 -15.077899933 0.20200815797
          0 0 0 3.4516074657 -15.080148697 -0.36360135674
          -0.23128934205 -6.1918091774 0.08809632808 -0.17211644351 -3.1842777729 -0.077315509319
          -0.1398076117 -1.9504680634 0.05996870622 9.6030015945 -17.667217255 -0.24335922301
          11.804879189 -17.945735931 -1.8963861294e-05 1.8610132933 -13.261179924 0.18025776744
          -0.22935888171 -6.2384982109 0.046440865844 3.4739477634 -15.103731155 -0.15632809699
          -0.35195827484 -8.0862607956 -0.0077984374948 -0.072824418545 -0.92332285643 1.3644852004e-07
          -0.22074490786 -11.780262947 -0.380795151 9.6029272079 -17.683860779 -1.704611168e-05
          0.50127446651 -11.506797791 0.39503723383 -0.13358609378 -1.9608716965 4.2961534064e-07
          -0.2321600318 -6.2552375793 2.6681402687e-06 -0.20243074 -11.794958115 -0.15174770355
          3.4870700836 -15.136161804 -6.7970868258e-06 -0.50892525911 -10.04574585 0.44790479541
          14.006743431 -18.220703125 0.30616316199 7.3828706741 -17.372877121 -0.42077073455
          -0.47854250669 -9.876291275 0.087781876326 0 0 0
          -0.19007833302 -3.1034874916 0.13073408604 0.76698440313 -13.248310089 -0.32301050425
          -0.18154267967 -3.1431028843 0.067560300231 7.3878493309 -17.42722702 -0.21145676076
          11.805024147 -17.930065155 0.27479013801 -0.48082092404 -9.9885854721 -0.076841086149
          0.7646882534 -13.28144455 -0.15030509233 -0.074430607259 -0.91743832827 -0.037128418684
          -0.20835769176 -4.5856189728 -0.082690417767 4.5952310562 -15.05331707 0.35660022497
          -0.20010069013 -11.772452354 9.099025533e-07 -0.34889218211 -8.0142393112 -0.0039935992099
          1.883087039 -13.274126053 0.38636264205 7.3951039314 -17.448411942 -1.5057385099e-05
          9.6029949188 -17.667221069 0.24332509935 -0.36880227923 -10.021355629 3.4890290408e-06
          -0.13980723917 -1.9504678249 -0.059967786074 -0.17822867632 -3.1557636261 7.9497971228e-07
          -0.22935916483 -6.2384986877 -0.046435650438 3.4739458561 -15.10373497 0.15631452203
          0.75534129143 -13.303376198 -1.0713159782e-06 2.3244359493 -15.105106354 -0.34218472242
          -0.24340046942 -7.9737377167 0.10092525929 2.3022530079 -15.087854385 -0.15767471492
          -0.24065957963 -8.026055336 0.053720258176 14.00597477 -18.173477173 0.61309731007
          0 0 0 -0.20243288577 -11.794963837 0.15175120533
          -0.20000962913 -4.4835977554 0.13665436208 5.1306467056 -17.131851196 -0.34365019202
          -0.19755890965 -4.5248904228 0.069833390415 11.805174828 -17.882865906 0.54968065023
          -0.10084456205 -0.89437156916 -0.089104786515 5.1516394615 -17.186794281 -0.17831964791
          7.3878421783 -17.427230835 0.21142658591 -0.48082262278 -9.9885883331 0.076847366989
          -0.18154220283 -3.1431028843 -0.067558676004 0.76468509436 -13.281448364 0.15030291677
          2.2756314278 -15.067481041 -4.2502470023e-06 -0.23812040687 -8.0485887527 2.75451589e-06
          9.6044492722 -17.618427277 0.48752984405 -0.15720312297 -1.9170312881 -0.11744895577
          3.451602459 -15.08015728 0.36358836293 -0.19655300677 -4.5380806923 1.1526936987e-06
          -0.23128958046 -6.1918091774 -0.088091425598 5.1704745293 -17.215995789 -1.2942369722e-05
          15.022525787 -20.432067871 -0.61043018103 0 0 0
          -0.22074878216 -11.780270576 0.38079869747 2.3022511005 -15.0878582 0.15766613185
          0 0 0 12.722491264 -20.143386841 -0.55002170801
          -0.90194904804 -12.055271149 -0.37171405554 -0.24065996706 -8.0260562897 -0.053714793175
          -0.12680652738 -0.82771831751 0.12590992451 0.085744827986 -13.516231537 -0.38155660033
          15.02280426 -20.477466583 -0.30523139238 7.3828573227 -17.37288475 0.4207406342
          12.722366333 -20.188619614 -0.27480486035 -0.089330025017 -0.85139894485 0.05250787735
          -0.47854539752 -9.8762950897 -0.087776519358 -0.88035726547 -12.071788788 -0.13003718853
          -0.19007726014 -3.1034862995 -0.1307323277 4.0134825706 -17.039611816 -0.31566554308
          -0.19755837321 -4.5248908997 -0.069831050932 0.76697874069 -13.248316765 0.32300889492
          -0.18453870714 -6.060965538 0.13152039051 5.1516308784 -17.186796188 0.17829401791
          0.087961159647 -13.524992943 -0.10642787069 -0.18442983925 -6.0999264717 0.073521062732
          3.9157743454 -16.946746826 -0.1413269192 10.42972374 -19.884141922 -0.49007806182
          15.022458076 -20.492567062 -2.4117709472e-05 -0.18714860082 -1.8007110357 0.1667856127
          0 0 0 10.425702095 -19.928403854 -0.24409267306
          -0.16143001616 -1.8350219727 0.08581662178 12.72219944 -20.203559875 -2.2188283765e-05
          1.2418888807 -15.154109955 -0.3619171381 -0.27964386344 -11.769101143 3.070828825e-06
          0.052444655448 -13.537402153 -5.7238173667e-07 -0.26467832923 -9.9697761536 0.1127595529
          -0.086753860116 -0.85677844286 -2.1583636567e-07 1.1318668127 -15.090328217 -0.14969442785
          3.7248911858 -16.798681259 -7.6101878221e-06 -0.2625656724 -10.016263008 0.076309651136
          -0.18762944639 -6.1136040688 1.5168924392e-06 2.3244318962 -15.105115891 0.34217643738
          10.422636986 -19.941879272 -2.0148458134e-05 -0.24340130389 -7.9737386703 -0.10092039406
          -0.15263903141 -1.8443555832 -2.3416784245e-07 8.1176815033 -19.645524979 -0.42878633738
          15.022798538 -20.477470398 0.30518314242 0.98408305645 -14.987999916 -2.0786783352e-06
          -0.21425284445 -2.9492433071 0.18813122809 -0.20000852644 -4.4835968018 -0.13665194809
          -0.27331116796 -9.9467353821 3.0172557217e-06 5.13063097 -17.131858826 0.34362494946
          0 0 0 8.1169061661 -19.692733765 -0.20860105753
          -0.20296631753 -2.9881753922 0.096469931304 12.722359657 -20.188623428 0.27476045489
          -0.8803576231 -12.07179451 0.13004311919 0.087959215045 -13.524996758 0.10642882437
          -0.089329741895 -0.85139888525 -0.052508212626 3.9157733917 -16.946750641 0.1413115114
          -0.18442939222 -6.0999269485 -0.07351808995 10.425694466 -19.928407669 0.24405230582
          8.1181774139 -19.706512451 -1.7974702132e-05 2.7809863091 -16.954324722 -0.36108484864
          -0.12407875061 -7.8429198265 0.15204884112 -0.19809693098 -2.9990627766 -1.16561786e-07
          -0.16142946482 -1.8350219727 -0.085816986859 -0.1181659922 -7.875995636 0.070069372654
          1.1318655014 -15.090332985 0.14969030023 2.737165451 -16.915487289 -0.16402642429
          -0.2625670135 -10.016265869 -0.076304890215 5.7728152275 -19.396802902 -0.34790724516