<?xml version="1.0"?>
<VTKFile type="UnstructuredGrid" version="0.1" byte_order="LittleEndian" header_type="UInt32" compressor="vtkZLibDataCompressor">
  <UnstructuredGrid>
    <Piece NumberOfPoints="6405" NumberOfCells="4800">
      <PointData>
        <DataArray type="Float32" Name="DISPLACEMENT" NumberOfComponents="3" ComponentName0="X-DISPLACEMENT" ComponentName1="Y-DISPLACEMENT" ComponentName2="Z-DISPLACEMENT" format="ascii" RangeMin="0" RangeMax="970.3345213">
          0 0 0 0 0 0
          6.6169734001 -3.9817516804 -3.1125020981 0 0 0
          4.6846151352 -2.2851052284 -2.6641645432 0 0 0
          5.9706573486 -4.2608995438 -1.2464365959 4.0502896309 -2.5045416355 -1.0893442631
          0 0 0 11.988135338 -6.5772018433 -3.3344027996
          0 0 0 11.731904984 -6.9306774139 -1.7266477346
          9.5190067291 -5.1447849274 -3.0291223526 0 0 0
          0 0 0 5.9881820679 -4.3827352524 1.7473497849e-07
          3.9117918015 -1.4952453375 -2.3839447498 4.0479168892 -2.5581657887 1.4784146174e-07
          9.2621822357 -5.4020347595 -1.5415445566 3.3652496338 -1.6829817295 -0.97145760059
          11.587425232 -7.0297789574 4.4801231525e-07 7.7731604576 -3.9210796356 -2.6858537197
          0 0 0 9.1317577362 -5.4985070229 3.7810883668e-07
          7.5394096375 -4.153488636 -1.3766412735 0 0 0
          17.197637558 -9.6124744415 -3.3245882988 0 0 0
          3.3679039478 -1.7275656462 1.0779058357e-07 0 0 0
          0 0 0 5.9706573486 -4.2608995438 1.2464369535
          14.276975632 -8.122303009 -3.0038132668 17.155889511 -9.881272316 -1.6949541569
          3.2783472538 -1.0349961519 -2.0641794205 4.0502896309 -2.5045416355 1.0893446207
          14.244560242 -8.3745288849 -1.5274217129 2.8045887947 -1.2223688364 -0.84854245186
          7.4196157455 -4.2280087471 2.9791993938e-07 11.731904984 -6.9306769371 1.7266485691
          0 0 0 0 0 0
          6.4552416801 -3.0981297493 -2.3444993496 11.855567932 -6.8443436623 -2.6843776703
          17.0974617 -9.9845628738 8.0275327718e-07 9.2621822357 -5.4020347595 1.5415452719
          11.815670013 -7.0888805389 -1.3659342527 3.3652498722 -1.6829817295 0.97145783901
          14.189578056 -8.4631586075 6.7213562716e-07 6.2510080338 -3.3307192326 -1.2008998394
          2.8105072975 -1.2600303888 7.2067344092e-08 0 0 0
          22.421045303 -12.972780228 -3.210041523 0 0 0
          19.028926849 -11.493725777 -2.9022479057 7.5394101143 -4.153488636 1.3766419888
          22.452627182 -13.213673592 -1.6220722198 6.616973877 -3.981751442 3.1125023365
          0 0 0 0 0 0
          6.1489944458 -3.4012506008 2.1697661623e-07 11.764832497 -7.1686463356 5.377147545e-07
          2.709300518 -0.73950117826 -1.7383531332 19.063169479 -11.732110977 -1.4633601904
          4.684615612 -2.2851052284 2.66416502 9.8214998245 -5.8363451958 -2.3398444653
          0 0 0 17.155889511 -9.881272316 1.6949557066
          2.3085124493 -0.9276201129 -0.7158266902 9.7838850021 -6.0832791328 -1.1933362484
          14.244561195 -8.3745279312 1.5274230242 2.8045887947 -1.2223687172 0.84854263067
          16.009429932 -10.191620827 -2.5896716118 5.2944426537 -2.5428161621 -1.9864550829
          22.440061569 -13.29840374 1.1966733382e-06 11.988136292 -6.5772018433 3.3344037533
          0 0 0 0 0 0
          16.037849426 -10.432459831 -1.3068779707 9.5190076828 -5.1447844505 3.0291233063
          19.054714203 -11.814929008 1.0001806459e-06 5.1188445091 -2.777971983 -1.0174273252
          3.9117922783 -1.4952450991 2.3839452267 2.3152723312 -0.96484512091 4.0359015685e-08
          9.7371511459 -6.1594109535 4.0548289348e-07 11.815670013 -7.0888805389 1.3659353256
          6.2510085106 -3.3307192326 1.2009003162 16.027729034 -10.512619972 8.0487347986e-07
          7.7731609344 -3.9210793972 2.685854435 5.0332374573 -2.8477668762 1.4236253776e-07
          13.329584122 -9.1172981262 -2.2622580528 22.452627182 -13.213673592 1.622074604
          17.197639465 -9.6124734879 3.3245899677 0 0 0
          27.604007721 -16.767366409 -3.1246948242 0 0 0
          0 0 0 8.0326528549 -5.1034398079 -1.989115715
          13.351483345 -9.3620004654 -1.1426116228 27.646945953 -16.996305466 -1.5671430826
          23.72650528 -15.300531387 -2.819783926 19.063171387 -11.732110977 1.4633622169
          2.1747350693 -0.55409651995 -1.4161131382 0 0 0
          14.276976585 -8.1223020554 3.0038146973 3.2783474922 -1.0349960327 2.0641796589
          7.9975352287 -5.3522953987 -1.0141642094 2.3085124493 -0.92761999369 0.7158267498
          1.8456943035 -0.73950624466 -0.58343315125 9.7838859558 -6.083278656 1.1933370829
          23.769916534 -15.53237915 -1.4137147665 16.037849426 -10.432459831 1.3068796396
          13.341174126 -9.4412822723 6.1562485598e-07 27.6541996 -17.074813843 1.6019507711e-06
          4.2232217789 -2.176554203 -1.6280847788 5.118844986 -2.7779717445 1.0174275637
          0 0 0 20.151941299 -14.001900673 -2.5130388737
          6.455242157 -3.0981295109 2.3444998264 11.855568886 -6.8443431854 2.684378624
          7.9570384026 -5.4283881187 2.8094777349e-07 23.778209686 -15.610759735 1.3363099924e-06
          1.8519098759 -0.77653247118 1.5607106718e-08 4.0758547783 -2.4098176956 -0.83298045397
          20.191238403 -14.237077713 -1.2598098516 22.421045303 -12.972780228 3.2100439072
          0 0 0 10.909237862 -8.2816734314 -1.9262318611
          19.028926849 -11.493725777 2.9022498131 4.0058245659 -2.4794530869 7.6762944445e-08
          10.925146103 -8.5282268524 -0.97319352627 20.198165894 -14.315916061 1.0768945913e-06
          2.709300518 -0.73950099945 1.7383532524 13.351483345 -9.3620004654 1.1426128149
          16.873838425 -12.900417328 -2.1962137222 27.646945953 -16.996303558 1.5671463013
          6.3882851601 -4.5926856995 -1.6374320984 9.8214998245 -5.8363447189 2.3398454189
          0 0 0 7.9975357056 -5.3522953987 1.0141648054
          16.907167435 -13.139426231 -1.1015866995 1.8456944227 -0.73950612545 0.58343315125
          6.3555803299 -4.8396582603 -0.83436846733 23.769916534 -15.53237915 1.4137175083
          16.009429932 -10.191619873 2.5896732807 5.2944431305 -2.5428156853 1.9864554405
          32.725120544 -21.024440765 -3.0650317669 0 0 0
          10.915112495 -8.6073446274 4.3625337298e-07 28.354404449 -19.576393127 -2.760689497
          32.76322937 -21.251052856 -1.5328240395 0 0 0
          1.6660187244 -0.45126584172 -1.10359478 28.392196655 -19.805038452 -1.3810327053
          16.91235733 -13.218322754 8.2641781773e-07 1.4062843323 -0.63121557236 -0.45495715737
          4.0758547783 -2.4098174572 0.83298063278 6.3212294579 -4.9153122902 1.6800143499e-07
          20.191240311 -14.237076759 1.2598119974 24.247367859 -18.288791656 -2.4572141171
          3.2136175632 -1.9558838606 -1.2782299519 32.774860382 -21.326887131 1.9978324417e-06
          0 0 0 3.0938167572 -2.1832339764 -0.65336441994
          24.282520294 -18.519731522 -1.2288134098 28.40388298 -19.88161087 1.660327257e-06
          1.4109184742 -0.66781163216 -6.5908900559e-09 13.329584122 -9.1172981262 2.2622592449
          13.85092926 -12.011374474 -1.8734542131 27.604009628 -16.767364502 3.1246979237
          0 0 0 8.6754779816 -7.6680636406 -1.5908510685
          10.925146103 -8.5282268524 0.97319442034 8.0326538086 -5.1034393311 1.9891163111
          23.726507187 -15.300530434 2.819786787 2.1747350693 -0.55409634113 1.4161131382
          8.6855297089 -7.9127721786 -0.80349135399 13.87739563 -12.251966476 -0.93981343508
          16.907169342 -13.139426231 1.1015883684 6.3555808067 -4.8396577835 0.83436876535
          24.293094635 -18.59709549 1.3336110669e-06 3.0382962227 -2.2520079613 2.0365270359e-08
          20.406412125 -17.1805439 -2.1477475166 4.8478374481 -4.2622094154 -1.2930063009
          4.2232217789 -2.1765537262 1.628084898 32.763233185 -21.251052856 1.5328279734
          20.151943207 -14.001899719 2.5130410194 0 0 0
          13.881081581 -12.331004143 5.8815345483e-07 8.6761960983 -7.9914636612 2.7018018045e-07
          20.437004089 -17.414079666 -1.0742851496 28.392196655 -19.805038452 1.3810360432
          4.8180198669 -4.5035066605 -0.6584713459 1.4062844515 -0.63121545315 0.45495715737
          10.909238815 -8.2816724777 1.9262326956 20.446073532 -17.491756439 1.0189153272e-06
          24.282520294 -18.519731522 1.2288160324 3.0938167572 -2.1832337379 0.65336447954
          4.7898206711 -4.578063488 6.7524389635e-08 37.778785706 -25.764102936 -3.0198171139
          0 0 0 37.810985565 -25.990261078 -1.5089176893
          16.873838425 -12.900416374 2.1962151527 32.912166595 -24.335201263 -2.7155561447
          6.3882851601 -4.5926852226 1.637432456 11.035019875 -11.329696655 -1.5506997108
          1.1816031933 -0.41745388508 -0.80513483286 8.6855297089 -7.9127717018 0.80349189043
          13.87739563 -12.251965523 0.93981462717 0 0 0
          32.943874359 -24.56212616 -1.3577475548 11.054788589 -11.568836212 -0.77782946825
          0.98771381378 -0.59060913324 -0.33270171285 16.810523987 -16.263856888 -1.8343322277
          6.5853447914 -7.2463364601 -1.2615116835 32.725120544 -21.024438858 3.06503582
          0 0 0 28.354404449 -19.57639122 2.7606928349
          37.822025299 -26.065238953 2.3586078441e-06 6.5903558731 -7.4861979485 -0.63700455427
          16.835536957 -16.498523712 -0.91757494211 1.6660188437 -0.45126566291 1.10359478
          28.287210464 -23.061910629 -2.4146151543 2.2591540813 -1.8538993597 -0.9431117177
          0 0 0 20.437004089 -17.414079666 1.0742871761
          4.8180203438 -4.5035066605 0.65847146511 32.95476532 -24.637722015 1.9463338958e-06
          11.057081223 -11.647511482 3.6477030108e-07 28.31684494 -23.289651871 -1.2067381144
          2.166164875 -2.0733516216 -0.48189708591 0.98995751143 -0.62719976902 -2.3208206912e-08
          24.247367859 -18.288789749 2.4572167397 3.2136178017 -1.955883503 1.2782299519
          16.842910767 -16.576335907 7.1798405088e-07 6.5819616318 -7.5637860298 1.1962713131e-07
          13.85092926 -12.01137352 1.8734554052 28.326931 -23.365898132 1.5505279407e-06
          2.1241309643 -2.1410825253 -2.6380190477e-08 8.6754779816 -7.6680626869 1.5908516645
          37.810985565 -25.990259171 1.5089223385 23.908058167 -21.955989838 -2.1104323864
          0 0 0 3.4012892246 -4.079911232 -0.9612005353
          23.934185028 -22.185112 -1.0548247099 32.943874359 -24.562124252 1.3577514887
          0.98771381378 -0.59060901403 0.33270165324 11.054788589 -11.568836212 0.77783018351
          3.3754248619 -4.313811779 -0.48949235678 20.406414032 -17.1805439 2.147749424
          13.431188583 -15.539271355 -1.5209584236 16.835538864 -16.498523712 0.91757637262
          4.847837925 -4.2622089386 1.2930064201 6.5903558731 -7.4861974716 0.63700479269
          8.3945331573 -10.837861061 -1.2329528332 13.450522423 -15.772819519 -0.76075601578
          23.943077087 -22.261480331 1.170146902e-06 28.31684494 -23.289649963 1.2067410946
          2.166164875 -2.0733513832 0.4818970263 8.408370018 -11.073186874 -0.61840313673
          3.353328228 -4.3870148659 -1.8487913422e-08 42.767204285 -30.994083405 -2.9810271263
          0 0 0 0.72661244869 -0.44370496273 -0.52470839024
          13.456215858 -15.850377083 4.3485385959e-07 19.764621735 -21.026628494 -1.8039593697
          37.404960632 -29.583633423 -2.677542448 37.778785706 -25.764101028 3.0198218822
          0 0 0 0 0 0
          8.4095277786 -11.151023865 1.5968743128e-07 4.6300935745 -6.9866199493 -0.94219702482
          42.795387268 -31.219673157 -1.4893289804 19.786348343 -21.256317139 -0.90165007114
          37.432624817 -29.809028625 -1.3387458324 32.91217041 -24.335199356 2.7155599594
          0.59517109394 -0.61107248068 -0.21809974313 11.035019875 -11.329695702 1.5507004261
          1.1816031933 -0.41745370626 0.80513477325 4.6315159798 -7.2205967903 -0.47584608197
          23.934185028 -22.185110092 1.0548269749 3.3754251003 -4.313811779 0.48949232697
          32.272327423 -28.325286865 -2.3790040016 16.810523987 -16.263856888 1.8343336582
          6.5853447914 -7.2463359833 1.2615119219 0 0 0
          1.3719877005 -1.847640872 -0.62572097778 42.805011749 -31.294172287 2.6633222205e-06
          0.59459906816 -0.64900374413 -3.1433923908e-08 19.793821335 -21.332731247 8.0708377936e-07
          32.298061371 -28.550390244 -1.1888978481 28.287210464 -23.061908722 2.4146182537
          37.442176819 -29.883937836 2.1795588054e-06 2.2591540813 -1.8538990021 0.9431117177
          4.6243915558 -7.2969479561 -1.3096276064e-08 1.305872798 -2.0605807304 -0.31962940097
          13.450522423 -15.772818565 0.76075690985 8.408370018 -11.073186874 0.61840343475
          10.249414444 -14.996578217 -1.2113348246 32.30696106 -28.625705719 1.7144825506e-06
          1.2764815092 -2.1275446415 -5.9782053086e-08 10.263666153 -15.227262497 -0.60587072372
          27.372718811 -27.22624588 -2.079110384 0 0 0
          2.0692796707 -4.0144338608 -0.64322096109 42.795387268 -31.219673157 1.4893342257
          0.59517109394 -0.61107236147 0.21809968352 19.786348343 -21.256315231 0.90165168047
          27.39550972 -27.451742172 -1.0390855074 23.908058167 -21.95598793 2.1104345322
          37.432624817 -29.809028625 1.3387502432 15.84172821 -20.27589798 -1.4976447821
          5.9258275032 -10.512003899 -0.92295962572 3.4012892246 -4.0799107552 0.96120047569
          2.04915905 -4.2428207397 -0.32754588127 4.6315159798 -7.2205963135 0.47584605217
          15.858870506 -20.504665375 -0.74850022793 5.93496418 -10.742980957 -0.46303290129
          10.267810822 -15.304217339 1.7221447024e-07 13.431188583 -15.539270401 1.5209592581
          32.298061371 -28.550388336 1.1889013052 8.3945331573 -10.837860107 1.2329531908
          27.403434753 -27.526964188 1.2684411104e-06 1.3058726788 -2.0605807304 0.31962928176
          2.0332055092 -4.3148369789 -8.7010512573e-08 15.864851952 -20.580850601 4.6222515948e-07
          5.935277462 -10.819925308 -2.4422231348e-08 2.8376336098 -6.856777668 -0.63268256187
          22.701807022 -26.292865753 -1.7781385183 42.767204285 -30.99407959 2.9810323715
          0 0 0 10.263666153 -15.227262497 0.60587108135
          0.72661238909 -0.44370484352 0.52470833063 2.8372018337 -7.0871367455 -0.31950932741
          19.764621735 -21.026628494 1.8039609194 37.404960632 -29.583631516 2.6775467396
          22.720981598 -26.518436432 -0.88866370916 47.693740845 -36.716392517 -2.9450676441
          0 0 0 4.6300935745 -6.9866189957 0.94219696522
          47.719562531 -36.940860748 -1.4714032412 0.31798171997 -0.51312035322 -0.26130175591
          41.838043213 -35.323432922 -2.6431262493 27.39550972 -27.451740265 1.0390880108
          0 0 0 2.04915905 -4.2428207397 0.32754570246
          41.863330841 -35.547142029 -1.3216634989 0.24826598167 -0.67868286371 -0.10932977498
          15.858870506 -20.504663467 0.748501122 5.93496418 -10.742980957 0.46303284168
          32.272327423 -28.325284958 2.3790073395 2.8315987587 -7.1625185013 -1.2395803139e-07
          22.727731705 -26.593568802 8.3944939888e-07 1.3719877005 -1.8476406336 0.62572085857
          12.131370544 -19.698066711 -1.1941527128 0.59614086151 -1.900534749 -0.31908544898
          36.205718994 -34.079914093 -2.3471214771 7.2692980766 -14.618479729 -0.90761387348
          47.728084564 -37.014877319 2.8970223411e-06 0 0 0
          12.144309998 -19.924686432 -0.59680211544 41.871894836 -35.621395111 2.3413410872e-06
          0.24596890807 -0.71903580427 -3.277778049e-08 36.229053497 -34.302585602 -1.173055768
          0.55975264311 -2.1122248173 -0.16200362146 7.2793779373 -14.84601593 -0.45404207706
          10.249414444 -14.996577263 1.2113351822 12.148860931 -20.000429153 1.3921132336e-07
          3.6627573967 -10.323941231 -0.61986237764 2.8372018337 -7.0871362686 0.31950905919
          18.253143311 -25.527357101 -1.4775308371 36.237033844 -34.377063751 1.8070679744e-06
          27.372718811 -27.226243973 2.0791127682 22.720981598 -26.518434525 0.88866537809
          7.2821526527 -14.922373772 -6.6961462153e-08 0.54343307018 -2.1777203083 -7.9268808406e-08
          2.0692794323 -4.0144333839 0.64322072268 47.719562531 -36.940860748 1.4714089632
          30.798870087 -32.990016937 -2.0510108471 3.6683728695 -10.552721977 -0.31096842885
          0.91510760784 -4.0228619576 -0.3294545114 18.26849556 -25.752082825 -0.73839205503
          15.84172821 -20.275896072 1.4976456165 5.9258270264 -10.512002945 0.92295950651
          0 0 0 0.90328848362 -4.2512478828 -0.16702853143
          41.863330841 -35.547138214 1.321668148 0.24826596677 -0.6786827445 0.10932970792
          30.819547653 -33.21238327 -1.025108099 3.6680195332 -10.629059792 -1.8377276945e-07
          18.273990631 -25.826980591 4.2972456527e-07 12.144309998 -19.924684525 0.59680241346
          30.826660156 -33.286590576 1.2928874185e-06 0.89398866892 -4.3217830658 -1.3568342183e-07
          36.229053497 -34.302585602 1.1730593443 0.5597525835 -2.1122245789 0.16200345755
          7.2793779373 -14.846014977 0.45404192805 2.8376333714 -6.8567771912 0.63268232346
          22.701807022 -26.292863846 1.7781401873 25.616163254 -32.05789566 -1.7547010183
          47.693740845 -36.716388702 2.9450733662 0 0 0
          1.2798675299 -6.8163099289 -0.32358044386 0.31798163056 -0.51312017441 0.2613016665
          41.838043213 -35.323429108 2.6431307793 3.6683726311 -10.552721977 0.31096807122
          18.26849556 -25.752080917 0.7383928895 25.633686066 -32.279941559 -0.87701117992
          8.6451597214 -19.281066895 -0.89506989717 1.2789515257 -7.0479402542 -0.16283993423
          0.90328836441 -4.2512478828 0.16702824831 30.819547653 -33.212379456 1.0251106024
          8.6545324326 -19.505397797 -0.44738298655 14.027038574 -24.926469803 -1.1791064739
          4.5296883583 -14.382515907 -0.60883206129 52.561210632 -42.929862976 -2.9105045795
          0 0 0 46.215343475 -41.553634644 -2.610683918
          12.131369591 -19.698064804 1.1941529512 0.5961406827 -1.9005345106 0.31908527017
          36.205718994 -34.079910278 2.3471250534 4.5363168716 -14.608699799 -0.30455994606
          14.03879261 -25.149539948 -0.58924251795 7.2692975998 -14.618478775 0.90761369467
          52.585659027 -43.152755737 -1.4541882277 0 0 0
          1.2752023935 -7.1222672462 -2.1037672582e-07 25.639780045 -32.353946686 7.9867669456e-07
          9.009311907e-05 -0.56397914886 -6.6714244895e-05 46.239253998 -41.77545166 -1.3055363894
          7.4228053563e-05 -0.72991925478 -2.7868003599e-05 8.6577329636 -19.580732346 -1.5898226025e-07
          40.090103149 -40.324645996 -2.3173758984 4.5377831459 -14.684700966 -2.7925258905e-07
          14.043043137 -25.224088669 4.4710777303e-08 52.593486786 -43.226200104 3.0474518553e-06
          0 0 0 0.00015717741917 -1.939900279 -8.1019286881e-05
          40.111999512 -40.544960022 -1.1582634449 46.247211456 -41.849018097 2.4196058348e-06
          3.6627571583 -10.323941231 0.61986196041 18.253143311 -25.527355194 1.4775316715
          7.4146330007e-05 -0.77155047655 -2.2585293635e-08 0.00014648848446 -2.1536626816 -4.1315350245e-05
          30.798870087 -32.990013123 2.0510132313 0.91510736942 -4.0228619576 0.32945421338
          1.6794666052 -10.239429474 -0.31574180722 20.656650543 -31.285329819 -1.4589780569
          1.2789514065 -7.0479402542 0.1628395021 25.633684158 -32.279941559 0.87701278925
          1.6820639372 -10.469873428 -0.15799452364 20.670833588 -31.506536484 -0.72918605804
          8.6545324326 -19.505395889 0.44738262892 40.119400024 -40.61863327 1.8158647208e-06
          0.00014221017773 -2.2177102566 -8.3746947155e-08 34.186351776 -39.245117188 -2.0247843266
          4.5363163948 -14.608698845 0.30455937982 14.038791656 -25.149539948 0.58924257755
          52.585659027 -43.152755737 1.4541943073 0 0 0
          0.00021066855697 -4.0414814949 -9.0609537438e-05 34.205730438 -39.464641571 -1.0120602846
          46.239253998 -41.775447845 1.3055411577 0.00020211505762 -4.272187233 -4.6172539442e-05
          1.6812307835 -10.545578957 -3.1504808362e-07 20.675836563 -31.580284119 3.2570437725e-07
          7.4162555393e-05 -0.72991919518 2.7809588573e-05 40.111999512 -40.544960022 1.1582670212
          34.212306976 -39.537921906 1.2359935226e-06 0.00019862929184 -4.3417797089 -1.6689470783e-07
          25.616163254 -32.05789566 1.7547024488 10.041401863 -24.482017517 -0.88399374485
          0.00014634587569 -2.1536624432 4.1133578634e-05 1.2798671722 -6.8163094521 0.32357999682
          5.4262423515 -19.008123398 -0.59958255291 10.049975395 -24.703393936 -0.44179970026
          8.6451597214 -19.281064987 0.89506953955 5.4324798584 -19.23156929 -0.29966932535
          1.6820636988 -10.469872475 0.15799388289 20.670833588 -31.506536484 0.72918665409
          14.027037621 -24.926467896 1.1791064739 4.5296878815 -14.382514954 0.60883146524
          0.00024985580239 -6.8139915466 -0.00010162576655 28.504241943 -38.317577362 -1.7326241732
          52.561206818 -42.929859161 2.91051054 0 0 0
          46.215343475 -41.553634644 2.6106886864 0.00024077601847 -7.0480494499 -5.1526996685e-05
          10.053007126 -24.777647018 -3.1342750617e-07 2.1041419506 -14.261715889 -0.30878782272
          15.926548958 -30.670434952 -1.1650465727 28.520738602 -38.536476135 -0.86603629589
          8.9945351647e-05 -0.56397902966 6.6608372435e-05 5.4343180656 -19.306692123 -4.2730147243e-07
          34.205726624 -39.464637756 1.012062788 0.0002018956875 -4.2721867561 4.5826534915e-05
          15.937504768 -30.890306473 -0.58227646351 2.1074004173 -14.489439964 -0.15417577326
          40.090103149 -40.324642181 2.3173794746 0.00023767178936 -7.1217045784 -2.7645390333e-07
          28.526388168 -38.609462738 6.7729644115e-07 0.00015689182328 -1.9399001598 8.079939289e-05
          15.941403389 -30.963756561 -1.2195607724e-07 57.371566772 -49.631710052 -2.8767552376
          0 0 0 2.107647419 -14.565073967 -4.601468504e-07
          57.395206451 -49.852737427 -1.437353611 0 0 0
          10.049975395 -24.703393936 0.44179907441 50.539505005 -48.271697998 -2.5794332027
          1.6794660091 -10.23942852 0.31574112177 20.656650543 -31.285327911 1.4589785337
          -0.31781280041 -0.51314473152 0.26118046045 5.4324798584 -19.23156929 0.29966843128
          50.562587738 -48.491458893 -1.2899628878 -0.24812662601 -0.67871642113 0.10927911103
          34.186351776 -39.245117188 2.0247867107 57.402622223 -49.925533295 3.1055694762e-06
          0.0002404711704 -7.0480494499 5.0959231885e-05 43.927448273 -47.056991577 -2.2889547348
          -0.59584331512 -1.9005918503 0.31893748045 28.520738602 -38.536472321 0.8660376668
          0 0 0 23.046234131 -37.543247223 -1.4412683249
          0.00027071504155 -10.219164848 -0.000116055533 0.00021024333546 -4.0414814949 9.0224311862e-05
          -0.55947506428 -2.1122946739 0.16192787886 43.948467255 -47.27495575 -1.1440987587
          50.57019043 -48.564308167 2.408022965e-06 15.937503815 -30.890306473 0.58227616549
          0.00026011985028 -10.451700211 -5.8690413425e-05 23.059686661 -37.761276245 -0.7203977108
          2.1074001789 -14.489439964 0.15417483449 -0.24582956731 -0.71907103062 -1.6305190087e-08
          6.3427858353 -24.181985855 -0.59151870012 43.95552063 -47.347831726 1.7387420712e-06
          10.041400909 -24.48201561 0.88399302959 -0.54316341877 -2.1777927876 -8.7436774265e-08
          0.0002569174103 -10.526987076 -4.2240648668e-07 6.3484430313 -24.402761459 -0.29560819268
          23.064342499 -37.833984375 1.4084848488e-07 5.4262413979 -19.00812149 0.59958159924
          57.395206451 -49.852737427 1.4373596907 37.53528595 -45.988544464 -1.9997372627
          2.5465800762 -18.859090805 -0.30300545692 0 0 0
          -0.91470730305 -4.0229654312 0.32928913832 11.448541641 -30.207725525 -0.87366008759
          -0.90290397406 -4.2513656616 0.16694398224 37.553855896 -46.205387115 -0.99957460165
          50.562587738 -48.491458893 1.2899676561 2.5496349335 -19.083787918 -0.1512311399
          11.456531525 -30.4263134 -0.43667420745 -0.24812673032 -0.67871636152 -0.10927915573
          0.00024926979677 -6.8139910698 0.0001010153137 28.504241943 -38.317573547 1.7326254845
          6.3502025604 -24.476877213 -6.4035367586e-07 2.1041412354 -14.261714935 0.30878683925
          15.926548004 -30.670433044 1.1650462151 37.560108185 -46.27779007 1.0937642401e-06
          43.948467255 -47.27495575 1.1441022158 2.5501525402 -19.158689499 -6.6197998194e-07
          -0.55947524309 -2.1122944355 -0.16192807257 -0.89361077547 -4.3219041824 -1.9392211925e-07
          0.00025971446303 -10.451700211 5.7829849538e-05 23.059686661 -37.761276245 0.72039800882
          11.459320068 -30.499534607 -5.4131629668e-07 17.82252121 -36.920967102 -1.1514880657
          0.00026807974791 -14.22700119 -0.00013354490511 17.832975388 -37.137863159 -0.57555955648
          0.00025599633227 -14.456375122 -6.7557579314e-05 57.371566772 -49.631706238 2.8767614365
          0 0 0 6.3484425545 -24.402761459 0.29560691118
          -1.2793927193 -6.8164725304 0.32339555025 31.363862991 -45.06772995 -1.7114067078
          -1.2784934044 -7.048119545 0.1627458781 50.539505005 -48.271694183 2.5794379711
          -0.31781300902 -0.51314461231 -0.26118057966 31.379711151 -45.283721924 -0.85546588898
          37.553855896 -46.205387115 0.99957680702 2.5496344566 -19.083787918 0.15122979879
          -0.90290427208 -4.2513656616 -0.16694438457 11.456531525 -30.4263134 0.43667310476
          17.836616516 -37.210300446 -3.6978528328e-07 0.00025249930331 -14.531745911 -6.1353142655e-07
          43.927448273 -47.056987762 2.2889580727 -0.59584367275 -1.9005916119 -0.31893774867
          23.046232224 -37.543243408 1.4412684441 -1.2747501135 -7.1224503517 -3.3370460528e-07
          0.00026993872598 -10.219163895 0.00011514497601 31.385082245 -45.355766296 4.7160384042e-07
          62.126106262 -56.818283081 -2.843526125 0 0 0
          6.3427848816 -24.181983948 0.59151732922 17.832975388 -37.137859344 0.57555884123
          0 0 0 54.812217712 -55.474151611 -2.5489423275
          3.0012643337 -24.011987686 -0.29815754294 0.00025547441328 -14.456374168 6.6311869887e-05
          -0.72646850348 -0.44374060631 0.52460867167 7.2716555595 -29.888856888 -0.58422040939
          62.149250031 -57.037261963 -1.4207599163 37.53528595 -45.988540649 1.9997392893
          54.834793091 -55.691749573 -1.2747429609 -0.59505230188 -0.61112070084 0.21805842221
          2.5465791225 -18.859090805 0.30300405622 3.003964901 -24.233747482 -0.14884987473
          -0.91470783949 -4.0229649544 -0.32928961515 25.417669296 -44.295272827 -1.424079895
          -1.278493762 -7.048119545 -0.16274656355 11.448540688 -30.207723618 0.87365889549
          -1.6789536476 -10.239665985 0.31553131342 31.379711151 -45.283721924 0.85546684265
          7.2768435478 -30.107046127 -0.29199194908 -1.6815705299 -10.470129967 0.15788771212
          25.430662155 -44.510345459 -0.71184635162 47.719070435 -54.273555756 -2.261390686
          62.156425476 -57.109359741 3.0579105896e-06 -1.3717294931 -1.8477377892 0.62559950352
          0 0 0 47.7395401 -54.489170074 -1.1303405762
          -1.3056312799 -2.0606951714 0.31956732273 54.842185974 -55.76385498 2.2972919851e-06
          12.859177589 -36.447067261 -0.86374121904 3.0044846535 -24.307725906 -9.3206136853e-07
          7.2784519196 -30.180175781 -9.2880179636e-07 0.00023541980772 -18.81325531 -0.00015329562302
          -0.59448027611 -0.64905494452 -2.1001227424e-08 12.866782188 -36.662963867 -0.43176147342
          25.435098648 -44.582084656 -1.2834567542e-07 0.00022234491189 -19.0391922 -7.7667660662e-05
          -1.6807434559 -10.545840263 -5.1540746426e-07 17.82252121 -36.920967102 1.1514872313
          47.746383667 -54.561252594 1.5654901517e-06 0.00026707453071 -14.22700119 0.00013224218856
          -1.2762467861 -2.1276636124 -1.0373775439e-07 40.845813751 -53.216640472 -1.9754678011
          62.149246216 -57.037261963 1.420765996 12.869383812 -36.735218048 -8.5205232381e-07
          -2.0689287186 -4.0146174431 0.6430863142 -1.2793934345 -6.8164725304 -0.32339629531
          0.00021861860296 -19.113927841 -8.6659315457e-07 31.363861084 -45.067726135 1.7114075422
          0 0 0 40.863868713 -53.430900574 -0.98745846748
          -2.0488212109 -4.243024826 0.32747715712 54.834793091 -55.691749573 1.2747474909
          3.0039644241 -24.233747482 0.14884799719 7.2768425941 -30.10704422 0.29199007154
          -0.59505236149 -0.61112070084 -0.21805849671 25.430662155 -44.510345459 0.7118461132
          -1.6815710068 -10.470129013 -0.1578887552 47.7395401 -54.489170074 1.1303436756
          40.869926453 -53.502449036 8.5934988192e-07 19.709501266 -43.670368195 -1.1382302046
          -2.1036376953 -14.262042999 0.30854639411 -2.0328731537 -4.3150463104 -2.2801086175e-07
          -1.3056315184 -2.0606951714 -0.31956753135 -2.106918335 -14.489790916 0.15405318141
          12.866782188 -36.662960052 0.43175974488 19.71963501 -43.884422302 -0.56897383928
          0.00022169058502 -19.0391922 7.5913383625e-05 34.193565369 -52.303970337 -1.6907652617
          62.126106262 -56.818279266 2.8435320854 0 0 0
          -2.837215662 -6.8570737839 0.63253366947 34.208999634 -52.517208099 -0.84516501427
          54.812217712 -55.474147797 2.5489468575 -2.8367974758 -7.0874562263 0.31943365932
          3.0012631416 -24.011987686 0.29815560579 19.723108292 -43.955909729 -7.0231442351e-07
          -0.72646874189 -0.4437405169 -0.52460879087 7.271654129 -29.88885498 0.58421850204
          -2.1071720123 -14.565429688 -7.480176123e-07 40.863868713 -53.430900574 0.98746013641
          25.417669296 -44.295269012 1.4240795374 3.463906765 -29.703975677 -0.29399457574