<?xml version="1.0"?>
<VTKFile type="UnstructuredGrid" version="0.1" byte_order="LittleEndian" header_type="UInt32" compressor="vtkZLibDataCompressor">
  <UnstructuredGrid>
    <Piece NumberOfPoints="6405" NumberOfCells="4800">
      <PointData>
        <DataArray type="Float32" Name="DISPLACEMENT" NumberOfComponents="3" ComponentName0="X-DISPLACEMENT" ComponentName1="Y-DISPLACEMENT" ComponentName2="Z-DISPLACEMENT" format="ascii" RangeMin="0" RangeMax="346.62905532">
          0 0 0 0 0 0
          2.6837630272 -1.5559145212 -1.2366741896 0 0 0
          1.5638295412 -0.87564885616 -0.84632927179 0 0 0
          2.4675953388 -1.7859684229 -0.48776480556 1.3603988886 -1.0758349895 -0.34415534139
          0 0 0 4.8759493828 -3.2055408955 -1.2615487576
          0 0 0 4.8150725365 -3.4726932049 -0.64267337322
          3.1570694447 -2.6735568047 -0.93760311604 0 0 0
          0 0 0 2.4826588631 -1.853394866 4.4446277769e-08
          0.9053452611 -0.56853371859 -0.50023162365 1.3533341885 -1.1119304895 1.3267852594e-08
          3.0876305103 -2.8986551762 -0.47666740417 0.78096276522 -0.76973080635 -0.20549447834
          4.7638778687 -3.5454633236 7.496819876e-08 1.7682334185 -2.2949612141 -0.58629584312
          0 0 0 3.0454967022 -2.9654536247 2.005816313e-08
          1.6817550659 -2.5052781105 -0.30235290527 0 0 0
          6.8225736618 -5.5210800171 -1.1584860086 0 0 0
          0.7763696909 -0.80159813166 -1.8065126284e-08 0 0 0
          0 0 0 2.4675953388 -1.7859683037 0.48776489496
          4.6249403954 -5.0402121544 -0.90289467573 6.8447022438 -5.7149028778 -0.58625262976
          0.0032224019524 -0.47989249229 -0.10432973504 1.3603988886 -1.0758348703 0.34415537119
          4.6352353096 -5.2217135429 -0.45811256766 -0.091853067279 -0.70836120844 -0.06942563504
          1.6476206779 -2.5625598431 -3.2947902184e-08 4.8150725365 -3.4726929665 0.64267355204
          0 0 0 0 0 0
          0.14206437767 -2.1235206127 -0.2655518949 2.7321367264 -4.716132164 -0.65767878294
          6.8231687546 -5.7800745964 9.8384283831e-08 3.0876305103 -2.8986549377 0.47666743398
          2.6867802143 -4.8784685135 -0.33385336399 0.78096276522 -0.76973074675 0.20549443364
          4.6221961975 -5.2782597542 2.1883151291e-08 0.04708352685 -2.3292191029 -0.14827170968
          -0.1113923341 -0.75318658352 -5.5607110028e-08 0 0 0
          8.5448846817 -8.2158336639 -1.003516674 0 0 0
          6.0052266121 -7.7925086021 -0.83889710903 1.6817550659 -2.5052778721 0.30235281587
          8.5933694839 -8.3427839279 -0.50713276863 2.6837630272 -1.555914402 1.2366741896
          0 0 0 0 0 0
          0.026546983048 -2.3883576393 -8.7095216372e-08 2.6706314087 -4.9291644096 -5.2058929612e-08
          -0.97206997871 -0.69993978739 -0.010925820097 6.04114151 -7.9144201279 -0.42177674174
          1.5638295412 -0.87564873695 0.8463293314 0.64765942097 -4.5192341805 -0.45916333795
          0 0 0 6.8447022438 -5.7149028778 0.58625280857
          -1.1565389633 -0.81311827898 -0.0013227541931 0.57675850391 -4.6594753265 -0.22949139774
          4.6352353096 -5.2217130661 0.45811262727 -0.091853037477 -0.70836114883 0.069425530732
          3.7376544476 -7.4951944351 -0.6836925149 -0.98689162731 -2.4092066288 -0.30246147513
          8.5882406235 -8.3857593536 1.1252925702e-07 4.8759493828 -3.205540657 1.261548996
          0 0 0 0 0 0
          3.7249107361 -7.6002120972 -0.34482675791 3.1570694447 -2.6735565662 0.93760311604
          6.0443429947 -7.9546523094 1.8773951282e-08 -1.0844560862 -2.4878952503 -0.10306558758
          0.90534520149 -0.56853359938 0.50023162365 -1.197486043 -0.87787437439 -1.1233003505e-07
          0.5641630888 -4.7063817978 -1.3136656207e-07 2.6867802143 -4.8784685135 0.33385327458
          0.0470835343 -2.3292188644 0.14827153087 3.7197539806 -7.6365580559 -7.3489935914e-08
          1.7682332993 -2.2949609756 0.58629578352 -1.0920619965 -2.5583312511 -1.6257902757e-07
          1.4348396063 -7.2950229645 -0.57628685236 8.5933694839 -8.3427839279 0.50713300705
          6.822573185 -5.5210795403 1.1584862471 0 0 0
          10.055752754 -11.121297836 -0.87415719032 0 0 0
          0 0 0 -0.75703471899 -4.6548118591 -0.40842080116
          1.3945914507 -7.3760342598 -0.28468587995 10.104046822 -11.197330475 -0.43951070309
          7.2964000702 -10.736918449 -0.77476406097 6.04114151 -7.914419651 0.42177677155
          -0.94842392206 -1.3866766691 0.46768593788 0 0 0
          4.6249403954 -5.0402116776 0.90289473534 0.0032224026509 -0.47989237309 0.10432963073
          -0.81669998169 -4.7338085175 -0.18705672026 -1.1565390825 -0.81311815977 0.0013225352159
          -0.99195641279 -1.4540553093 0.15339383483 0.57675850391 -4.6594753265 0.22949112952
          7.3359856606 -10.81228447 -0.38723734021 3.7249107361 -7.6002120972 0.3448266089
          1.3852705956 -7.4074602127 -1.7420953213e-07 10.107414246 -11.223890305 1.1814090328e-07
          -2.6249165535 -2.5414597988 -0.030410528183 -1.0844562054 -2.4878950119 0.10306524485
          0 0 0 4.7690005302 -10.446780205 -0.6804729104
          0.14206433296 -2.1235203743 0.26555168629 2.7321367264 -4.7161316872 0.65767866373
          -0.82348960638 -4.7798109055 -2.3611013944e-07 7.3446125984 -10.837345123 1.2351737411e-08
          -1.0303291082 -1.4804311991 2.1833930219e-08 -2.8509986401 -2.6260354519 -0.0085289590061
          4.7755012512 -10.50903511 -0.34085944295 8.5448846817 -8.2158336639 1.0035169125
          0 0 0 -0.37354373932 -7.2458648682 -0.50005978346
          6.0052266121 -7.7925081253 0.83889716864 -2.9639313221 -2.6149065495 8.6081826112e-09
          -0.42002233863 -7.2999892235 -0.25337100029 4.7767047882 -10.530885696 -9.3267182422e-08
          -0.97207009792 -0.69993960857 0.010925577022 1.3945913315 -7.3760342598 0.28468552232
          2.2984759808 -10.250342369 -0.6202096343 10.104046822 -11.197330475 0.43951094151
          -2.4489097595 -4.6197743416 -0.35243609548 0.64765936136 -4.5192337036 0.45916303992
          0 0 0 -0.81669998169 -4.7338085175 0.18705624342
          2.2817499638 -10.28990078 -0.30961170793 -0.99195671082 -1.4540553093 -0.15339386463
          -2.7837655544 -4.663310051 -0.14992743731 7.3359856606 -10.81228447 0.38723737001
          3.7376544476 -7.4951939583 0.68369233608 -0.98689180613 -2.4092063904 0.3024610877
          11.402564049 -14.126670837 -0.77972537279 0 0 0
          -0.4158796072 -7.3259682655 -2.8577301237e-07 8.5084447861 -13.770215034 -0.72016400099
          11.442327499 -14.171530724 -0.39062419534 0 0 0
          -0.60041505098 -1.9723206758 0.24808184803 8.5430965424 -13.815643311 -0.35868030787
          2.2770705223 -10.307624817 -2.0659464894e-07 -0.64507824183 -1.9511984587 0.13303387165
          -2.8509998322 -2.6260347366 0.0085287401453 -2.9804708958 -4.691865921 -4.5137923621e-07
          4.7755012512 -10.50903511 0.34085926414 5.7974286079 -13.485320091 -0.66082400084
          -1.2588051558 -3.5125536919 0.11634988338 11.44873333 -14.187187195 1.1799596678e-07
          0 0 0 -1.4643205404 -3.5969238281 -0.041842829436
          5.8124504089 -13.520125389 -0.32968720794 8.5524778366 -13.830296516 5.1590038908e-09
          -0.68242430687 -1.9906941652 -6.2557226954e-08 1.4348393679 -7.2950224876 0.57628643513
          0.23806166649 -10.238306999 -0.62854093313 10.055752754 -11.121297836 0.87415742874
          0 0 0 -1.1240941286 -7.9708499908 -0.87413495779
          -0.42002239823 -7.2999887466 0.25337040424 -0.7570348382 -4.6548113823 0.40842032433
          7.2964000702 -10.736918449 0.77476412058 -0.94842457771 -1.3866766691 -0.4676862359
          -1.1048926115 -7.890961647 -0.36761191487 0.21296863258 -10.241634369 -0.31011632085
          2.2817499638 -10.28990078 0.30961129069 -2.7837672234 -4.663310051 0.14992643893
          5.8167276382 -13.531529427 -1.0850995125e-07 -1.3911856413 -3.5964336395 -3.8563302951e-07
          3.1645328999 -13.292626381 -0.62996399403 -2.4498822689 -5.4493980408 -1.1306854486
          -2.6249184608 -2.5414588451 0.03040990606 11.442327499 -14.17152977 0.39062443376
          4.7690005302 -10.446779251 0.68047267199 0 0 0
          0.22334551811 -10.259805679 -3.2775787417e-07 -1.0150696039 -7.9790987968 -3.5475861182e-07
          3.1647386551 -13.304187775 -0.31556099653 8.5430965424 -13.815643311 0.35868030787
          -2.4766657352 -5.0736484528 -0.27756595612 -0.64507842064 -1.9511984587 -0.13303405046
          -0.37354388833 -7.2458643913 0.50005918741 3.1645846367 -13.312409401 -2.2940281497e-07
          5.8124504089 -13.520124435 0.32968696952 -1.4643205404 -3.5969235897 0.041842333972
          -2.267690897 -5.1332406998 3.5984942315e-07 12.633683205 -17.181854248 -0.71600580215
          0 0 0 12.663599014 -17.209854126 -0.35771080852
          2.2984759808 -10.250342369 0.62020921707 9.6532564163 -16.845481873 -0.6774687767
          -2.4489123821 -4.6197733879 0.35243436694 -0.72340327501 -10.773309708 -0.866091609
          -0.33424723148 -2.2275526524 0.16547268629 -1.1048923731 -7.890961647 0.36761114001
          0.21296854317 -10.241634369 0.3101156354 0 0 0
          9.6805238724 -16.874183655 -0.33684265614 -0.68846493959 -10.704618454 -0.40774315596
          -0.36395180225 -2.2153611183 0.067211650312 0.92299050093 -13.292399406 -0.68610405922
          -2.0045404434 -8.6392860413 -0.92403197289 11.402564049 -14.126670837 0.77972561121
          0 0 0 8.5084447861 -13.770215034 0.72016400099
          12.670387268 -17.219347 1.1461518312e-07 -1.9050740004 -8.6839542389 -0.47843110561
          0.92254257202 -13.263599396 -0.33864578605 -0.6004152894 -1.9723205566 -0.24808208644
          6.8064632416 -16.564683914 -0.63680493832 -0.83116900921 -4.248799324 -0.036257389933
          0 0 0 3.1647386551 -13.304187775 0.3155605495
          -2.4766657352 -5.0736479759 0.27756491303 9.6887769699 -16.88269043 -1.0683044449e-09
          -0.63067096472 -10.743304253 -4.7492019917e-07 6.8236365318 -16.584266663 -0.31701222062
          -0.92693912983 -4.246078968 0.0040548206307 -0.37458300591 -2.2232186794 -1.5586438451e-07
          5.7974286079 -13.485319138 0.66082376242 -1.2588055134 -3.5125534534 -0.11635035276
          0.93147927523 -13.274291039 -3.6105362256e-07 -1.8069221973 -8.7643909454 -5.7455866909e-07
          0.23806151748 -10.238306046 0.62854021788 6.8291025162 -16.589605331 -1.180306981e-07
          -0.94789659977 -4.2478742599 -3.0843736454e-07 -1.124093771 -7.9708499908 0.87413406372
          12.663599014 -17.209854126 0.35771104693 4.0326938629 -16.362916946 -0.62019079924
          0 0 0 -1.4633206129 -6.297973156 -0.18470178545
          4.0427508354 -16.361249924 -0.31073632836 9.6805238724 -16.874183655 0.33684265614
          -0.36395183206 -2.2153608799 -0.067211933434 -0.68846493959 -10.704618454 0.40774220228
          -1.6465563774 -6.4118542671 -0.26043179631 3.1645328999 -13.292625427 0.62996351719
          -0.25264757872 -13.739290237 -0.8897690773 0.92254251242 -13.263598442 0.33864507079
          -2.4498820305 -5.4493980408 1.1306847334 -1.905074358 -8.6839542389 0.47843003273
          -1.6538536549 -11.332751274 -1.0904091597 -0.20654296875 -13.695207596 -0.43489539623
          4.0453977585 -16.363788605 -2.4137426635e-07 6.8236365318 -16.584266663 0.3170119822
          -0.92693918943 -4.2460784912 -0.004055489786 -1.570494175 -11.187542915 -0.56061893702
          -1.6377162933 -6.3321404457 -6.3745829948e-07 13.787267685 -20.267469406 -0.67519617081
          0 0 0 -0.21831293404 -2.42614007 0.087480098009
          -0.16466586292 -13.734143257 -5.0978275112e-07 1.6283539534 -16.336545944 -0.68452775478
          10.74516201 -19.944892883 -0.64628964663 12.633683205 -17.181854248 0.71600604057
          0 0 0 0 0 0
          -1.5235265493 -11.147167206 -6.4273410771e-07 -2.5888812542 -9.2498159409 -1.1407563686
          13.808395386 -20.287689209 -0.33678537607 1.6427547932 -16.297267914 -0.33966979384
          10.7651577 -19.965530396 -0.32121282816 9.6532564163 -16.845481873 0.6774687767
          -0.22796867788 -2.4100079536 0.040431175381 -0.72340333462 -10.773309708 0.86609071493
          -0.3342474401 -2.2275526524 -0.16547302902 -2.4103741646 -9.2034101486 -0.483648628
          4.0427508354 -16.361249924 0.31073582172 -1.6465563774 -6.4118537903 0.26043090224
          7.7953176498 -19.665826797 -0.61465209723 0.92299038172 -13.292398453 0.68610334396
          -2.0045409203 -8.6392850876 0.92403078079 0 0 0
          -0.5512253046 -4.7167925835 0.034104701132 13.814376831 -20.294183731 1.1015083601e-07
          -0.23914320767 -2.4163644314 -1.8904272281e-07 1.6510612965 -16.300649643 -3.7468112168e-07
          7.81118536 -19.678663254 -0.30568614602 6.8064632416 -16.564682007 0.6368046999
          10.771729469 -19.971040726 -4.7811448134e-09 -0.83116924763 -4.248799324 0.036256756634
          -2.4388239384 -9.1908159256 -7.0194232649e-07 -0.61996549368 -4.7416405678 0.0089167430997
          -0.20654292405 -13.695206642 0.43489441276 -1.5704939365 -11.187542915 0.56061768532
          -1.035713315 -14.400933266 -1.0082390308 7.8166384697 -19.681285858 -1.2112151637e-07
          -0.63025665283 -4.7443079948 -4.4851449843e-07 -0.8148907423 -14.514472008 -0.50193619728
          4.9051885605 -19.450687408 -0.60306531191 0 0 0
          -1.1384403706 -7.1899666786 -0.11315616965 13.808395386 -20.287689209 0.33678561449
          -0.22796872258 -2.4100077152 -0.040431555361 1.642754674 -16.297267914 0.33966904879
          4.9186201096 -19.445201874 -0.30181092024 4.0326933861 -16.362916946 0.6201903224
          10.7651577 -19.965530396 0.32121279836 0.28177449107 -16.698919296 -0.86035108566
          -1.8309943676 -12.085130692 -0.54519677162 -1.4633209705 -6.2979726791 0.18470080197
          -1.1913636923 -7.2569656372 -0.044180672616 -2.4103741646 -9.2034091949 0.48364722729
          0.3237863183 -16.633489609 -0.41829887033 -1.8747757673 -12.410220146 -0.3556804657
          -0.66719925404 -14.640143394 -6.7519647473e-07 -0.25264754891 -13.739289284 0.88976812363
          7.81118536 -19.678663254 0.3056859076 -1.6538535357 -11.332751274 1.0904079676
          4.9227285385 -19.44540596 -2.4292236844e-07 -0.61996561289 -4.7416400909 -0.0089176092297
          -1.227872014 -7.285317421 -6.8988731527e-07 0.35292899609 -16.636236191 -5.1870330253e-07
          -1.8397859335 -12.501861572 -8.1251130268e-07 -1.9605383873 -9.957613945 0.077534876764
          2.3555421829 -19.38876152 -0.66414958239 13.787267685 -20.267469406 0.67519634962
          0 0 0 -0.81489050388 -14.514471054 0.50193482637
          -0.21831318736 -2.4261398315 -0.087480507791 -2.0644028187 -10.123045921 -0.13106454909
          1.6283538342 -16.336545944 0.68452697992 10.74516201 -19.944892883 0.64628964663
          2.3757543564 -19.348171234 -0.33019739389 14.89131546 -23.37862587 -0.65077239275
          0 0 0 -2.5888812542 -9.2498149872 1.1407551765
          14.905358315 -23.396442413 -0.32440584898 -0.10562697798 -2.5546188354 0.040598019958
          11.798623085 -23.064899445 -0.62488615513 4.9186201096 -19.445201874 0.3018104434
          0 0 0 -1.1913638115 -7.2569651604 0.044179294258
          11.812448502 -23.082778931 -0.31068736315 -0.11055721343 -2.5418200493 0.017846364528
          0.3237863481 -16.633489609 0.41829782724 -1.8747756481 -12.4102211 0.35567885637
          7.7953176498 -19.665826797 0.61465185881 -2.0624125004 -10.124177933 -9.2565494469e-07
          2.3854658604 -19.348548889 -3.7339830783e-07 -0.55122566223 -4.7167921066 -0.034105535597
          -0.56512248516 -17.309392929 -0.94472795725 -0.28281974792 -5.0506238937 0.015742130578
          8.7660446167 -22.786664963 -0.59667384624 -1.6697015762 -14.951623917 -0.90032213926
          14.910181046 -23.401929855 1.0605992173e-07 0 0 0
          -0.47729361057 -17.253864288 -0.45444849133 11.817353249 -23.087308884 -5.2525139793e-09
          -0.1148827225 -2.545527935 -2.4766046636e-07 8.7792692184 -22.797740936 -0.29668995738
          -0.30512431264 -5.0553851128 0.013196116313 -1.6864182949 -15.066404343 -0.41646063328
          -1.0357131958 -14.400933266 1.0082377195 -0.41270527244 -17.24230957 -6.7158180173e-07
          -4.0209732056 -12.360378265 -0.31613048911 -2.0644030571 -10.123045921 0.13106279075
          0.87765389681 -19.66264534 -0.83315956593 8.7840633392 -22.799697876 -1.1790584864e-07
          4.9051885605 -19.450687408 0.60306483507 2.3757543564 -19.348171234 0.33019664884
          -1.7138973475 -15.117499352 -8.5566233565e-07 -0.314088732 -5.06645298 -5.4597188637e-07
          -1.1384407282 -7.1899662018 0.11315492541 14.905358315 -23.396442413 0.3244060874
          5.7808647156 -22.560184479 -0.58549368382 -3.9518797398 -12.651834488 -0.17829661071
          -0.5111503005 -7.6611442566 -0.014137056656 0.91929650307 -19.599891663 -0.4061768651
          0.28177455068 -16.698919296 0.86035007238 -1.8309942484 -12.085130692 0.54519510269
          0 0 0 -0.55998158455 -7.7093667984 -0.0049414355308
          11.812448502 -23.082778931 0.31068736315 -0.11055725068 -2.5418200493 -0.017846841365
          5.7943968773 -22.555459976 -0.29278883338 -3.9098205566 -12.78069973 -8.2253319533e-07
          0.94815975428 -19.59980011 -5.1169683957e-07 -0.47729343176 -17.253862381 0.45444715023
          5.798974514 -22.555463791 -2.3532140858e-07 -0.5705781579 -7.7303981781 -8.5814855311e-07
          8.7792692184 -22.797740936 0.29668971896 -0.30512440205 -5.0553851128 -0.013197189197
          -1.6864182949 -15.066404343 0.41645890474 -1.9605387449 -9.957613945 -0.077536538243
          2.3555419445 -19.38876152 0.66414880753 3.103654623 -22.463956833 -0.64191710949
          14.89131546 -23.37862587 0.65077257156 0 0 0
          -0.66357928514 -10.65771389 -0.13903607428 -0.10562726855 -2.5546188354 -0.040598526597
          11.798623085 -23.064897537 0.62488615513 -3.9518799782 -12.651834488 0.17829485238
          0.91929650307 -19.599891663 0.40617585182 3.1260812283 -22.425569534 -0.31873011589
          -1.0461483002 -18.16824913 -1.00185287 -0.73714500666 -10.740202904 -0.058323122561
          -0.55998164415 -7.7093667984 0.0049397698604 5.7943968773 -22.555459976 0.29278835654
          -1.1138465405 -18.013063431 -0.50484311581 -0.068660125136 -20.135353088 -0.92578750849
          -3.9265391827 -14.655715942 -0.19892963767 15.966284752 -26.517467499 -0.6379519105
          0 0 0 12.825644493 -26.2088871 -0.61106002331
          -0.56512230635 -17.309392929 0.94472664595 -0.28282013535 -5.0506238937 -0.015743162483
          8.7660446167 -22.786664963 0.59667360783 -3.7741425037 -14.943162918 -0.2239202559
          -0.013578522019 -20.097301483 -0.46036010981 -1.6697016954 -14.951622963 0.90032035112
          15.974946022 -26.536130905 -0.31802344322 0 0 0
          -0.72299027443 -10.808551788 -1.148180786e-06 3.1372466087 -22.425628662 -3.6018579408e-07
          0.014594839886 -2.603957653 -0.0087231192738 12.834690094 -26.227294922 -0.30403491855
          0.012952355668 -2.5884895325 -0.0034618719947 -1.1634979248 -17.923311234 -8.3380859905e-07
          9.721323967 -25.931035995 -0.58264064789 -3.6126425266 -14.985262871 -1.007788569e-06
          0.024800769985 -20.099386215 -6.4995867888e-07 15.978679657 -26.541822433 1.0302328945e-07
          0 0 0 0.029570940882 -5.1496434212 -0.0085628982633
          9.7320795059 -25.943347931 -0.28984349966 12.838190079 -26.232088089 -2.3153263751e-09
          -4.0209741592 -12.360377312 0.31612852216 0.87765389681 -19.66264534 0.83315855265
          0.01297666505 -2.5925247669 -2.7895359267e-07 0.029807131737 -5.1501011848 -0.0042388844304
          5.7808647156 -22.560184479 0.58549320698 -0.51115065813 -7.6611442566 0.014135498554
          -0.59926557541 -13.659344673 -0.56531047821 1.5489292145 -22.670871735 -0.81218928099
          -0.73714488745 -10.740202904 0.058320909739 3.1260812283 -22.425569534 0.31872940063
          -0.63980996609 -13.811999321 -0.12270433456 1.586397171 -22.606502533 -0.39403903484
          -1.113846302 -18.013063431 0.50484150648 9.7360830307 -25.945865631 -1.0882884283e-07
          0.02955018729 -5.157720089 -6.1128798734e-07 6.6544632912 -25.69613266 -0.56929445267
          -3.774143219 -14.943162918 0.22391797602 -0.01357838884 -20.097301483 0.46035882831
          15.974946022 -26.536130905 0.31802365184 0 0 0
          0.04568368569 -7.8186454773 -0.0060376073234 6.6671299934 -25.694728851 -0.28449964523
          12.834690094 -26.227294922 0.30403491855 0.047375150025 -7.8536520004 -0.0027452080976
          -0.66183793545 -13.881429672 -1.5080972844e-06 1.6090561152 -22.601079941 -4.9135894642e-07
          0.012952323072 -2.5884895325 0.0034613311291 9.7320795059 -25.943347931 0.28984329104
          6.671318531 -25.695674896 -2.1963515451e-07 0.047418233007 -7.8740468025 -9.5586676707e-07
          3.1036543846 -22.463956833 0.64191639423 -0.7520980835 -20.772424698 -1.0015552044
          0.029807077721 -5.1501011848 0.0042376760393 -0.66357940435 -10.65771389 0.13903403282
          -1.8383129835 -18.701486588 -1.0890266895 -0.70516091585 -20.749044418 -0.50371128321
          -1.0461478233 -18.16824913 1.0018513203 -1.8621665239 -18.570920944 -0.56707632542
          -0.63980942965 -13.811999321 0.12270136178 1.586397171 -22.606502533 0.39403808117
          -0.06865990907 -20.135353088 0.92578625679 -3.9265408516 -14.655715942 0.19892655313
          0.062990747392 -10.588878632 -0.0016469899565 3.875221014 -25.571676254 -0.61944395304
          15.966284752 -26.517467499 0.63795208931 0 0 0
          12.825644493 -26.2088871 0.61106002331 0.064408101141 -10.689524651 -0.00090493168682
          -0.68270933628 -20.754768372 -7.8425131278e-07 -1.755207777 -21.188756943 -0.041026879102
          0.51275980473 -23.034866333 -0.89767843485 3.8991508484 -25.539066315 -0.30688175559
          0.014594529755 -2.603957653 0.0087225548923 -1.8805054426 -18.50466156 -9.7058807569e-07
          6.6671299934 -25.694728851 0.2844991982 0.047375161201 -7.8536520004 0.0027433342766
          0.55575305223 -22.985956192 -0.44702902436 -1.9072426558 -21.350484848 -0.059392612427
          9.721323967 -25.931034088 0.58264040947 0.064769037068 -10.720537186 -1.2971847809e-06
          3.9104800224 -25.540466309 -3.3664605326e-07 0.029570547864 -5.1496434212 0.0085617415607
          0.57637119293 -22.971475601 -6.1850420252e-07 17.027044296 -29.690130234 -0.63336932659
          0 0 0 -1.9357120991 -21.426290512 -1.9203434931e-06
          17.031816483 -29.71178627 -0.31584429741 0 0 0
          -0.70516067743 -20.749044418 0.50370973349 13.835729599 -29.383893967 -0.60272395611
          -0.59926509857 -13.659344673 0.56530803442 1.5489293337 -22.670871735 0.81218832731
          0.13613325357 -2.5503256321 -0.058756165206 -1.8621660471 -18.570920944 0.56707441807
          13.841312408 -29.405036926 -0.30016469955 0.13730467856 -2.5360789299 -0.025131113827
          6.6544632912 -25.69613266 0.56929403543 17.034723282 -29.718473434 1.014087232e-07
          0.06440833956 -10.689524651 0.00090243358864 10.663444519 -29.105703354 -0.57141435146
          0.34424483776 -5.0393323898 -0.033515997231 3.89915061 -25.539066315 0.30688107014
          0 0 0 2.2879776955 -25.700309753 -0.78039133549
          0.083637148142 -14.662924767 0.0012245606631 0.045683417469 -7.8186454773 0.0060358680785
          0.36704203486 -5.0419287682 -0.021732594818 10.672440529 -29.121488571 -0.2844504416
          13.843745232 -29.410890579 4.1689851571e-09 0.55575317144 -22.985956192 0.44702777267
          0.086210139096 -14.872195244 0.0042873788625 2.3283412457 -25.644882202 -0.38020959496
          -1.9072418213 -21.350484848 0.059388764203 0.14162355661 -2.5392978191 -2.9513395816e-07
          -1.2096705437 -21.653741837 -1.0904965401 10.675782204 -29.125406265 -9.4101778814e-08
          -0.75209772587 -20.772424698 1.0015536547 0.3751911819 -5.051841259 -6.4165254798e-07
          0.082191489637 -14.872695923 -1.5872958556e-06 -1.1964337826 -21.585021973 -0.52881133556
          2.3478219509 -25.64053154 -4.6071960469e-07 -1.8383123875 -18.701486588 1.0890247822
          17.031816483 -29.71178627 0.31584450603 7.5234684944 -28.863891602 -0.55295592546
          -1.7260576487 -19.233003616 -0.35091543198 0 0 0
          0.61092507839 -7.6427164078 0.0017986722523 -0.24871514738 -23.530082703 -0.94555902481
          0.66182374954 -7.6885442734 -2.6019704819e-05 7.5353598595 -28.868032455 -0.27642288804
          13.841312408 -29.405036926 0.30016472936 -1.8826394081 -19.386514664 -0.15253834426
          -0.18700674176 -23.498338699 -0.46840068698 0.13730464876 -2.5360789299 0.02513054572
          0.062990821898 -10.588878632 0.0016447113594 3.875221014 -25.571676254 0.61944329739
          -1.2304629087 -21.547048569 -8.914994396e-07 -1.7552059889 -21.18875885 0.041023060679
          0.51276004314 -23.034866333 0.89767724276 7.5388922691 -28.870607376 -1.9631804093e-07
          10.672440529 -29.121488571 0.28445026278 -1.8932105303 -19.400665283 -1.4372644728e-06
          0.36704200506 -5.041929245 0.021731330082 0.67207962275 -7.7076940536 -9.9697786027e-07
          0.08621083945 -14.872195244 -0.0042904801667 2.3283412457 -25.644882202 0.38020867109
          -0.16545654833 -23.484060287 -7.3785992072e-07 1.1698507071 -25.92074585 -0.84727889299
          0.12574072182 -21.17117691 0.026241468266 1.2213563919 -25.888917923 -0.42334964871
          0.094397962093 -21.35676384 0.014561491087 17.027044296 -29.690130234 0.63336956501
          0 0 0 -1.1964334249 -21.585021973 0.52880954742
          0.80468863249 -10.628926277 0.13312296569 4.6642436981 -28.710577011 -0.59200453758
          0.8804076314 -10.709980965 0.057631473988 13.835730553 -29.383893967 0.60272395611
          0.13613294065 -2.5503256321 0.058755576611 4.6889190674 -28.68629837 -0.29357975721
          7.5353598595 -28.868032455 0.27642250061 -1.8826386929 -19.386514664 0.15253554285
          0.66182380915 -7.6885442734 2.4076769478e-05 -0.18700653315 -23.498338699 0.46839922667
          1.2404285669 -25.878324509 -5.7837354461e-07 0.088677741587 -21.425174713 -1.5910186448e-06
          10.663444519 -29.105703354 0.57141417265 0.34424445033 -5.0393323898 0.033514797688
          2.2879776955 -25.700309753 0.78039044142 0.86300206184 -10.77869606 -1.290365276e-06
          0.083637915552 -14.66292572 -0.0012272184249 4.6992826462 -28.689107895 -3.0419155905e-07
          18.084571838 -32.90555954 -0.63469254971 0 0 0
          -1.2096698284 -21.653741837 1.0904947519 1.2213565111 -25.888917923 0.42334851623
          0 0 0 14.835756302 -32.59961319 -0.59818857908
          -1.1370552778 -22.672954559 -1.0963051319 0.094398990273 -21.35676384 -0.014564907178
          0.25110891461 -2.4164865017 -0.10843524337 -0.79772609472 -24.123548508 -0.96422809362
          18.086658478 -32.931819916 -0.31665658951 7.5234684944 -28.863889694 0.55295550823
          14.839045525 -32.625183105 -0.29817375541 0.25650936365 -2.3981575966 -0.049283005297
          -1.7260559797 -19.233005524 0.35091263056 -1.0248475075 -22.690711975 -0.5282561779
          0.61092489958 -7.6427164078 -0.001800477854 3.0869524479 -28.746549606 -0.73339408636
          0.88040792942 -10.709980965 -0.057633984834 -0.24871477485 -23.530082703 0.9455575943
          0.78117096424 -13.61162281 0.57621896267 4.6889190674 -28.68629837 0.29357916117
          -0.76266682148 -24.094503403 -0.4767408371 0.81552052498 -13.757634163 0.11582417786
          3.1337518692 -28.705795288 -0.35736432672 11.594620705 -32.320934296 -0.56182074547
          18.089036942 -32.94008255 1.0129817696e-07 0.61977082491 -4.6948690414 -0.055946841836
          0 0 0 11.602489471 -32.341720581 -0.27990865707
          0.68733108044 -4.7132663727 -0.0194173567 14.840797424 -32.632698059 1.4167993889e-08
          0.3717803359 -26.243364334 -0.8611972332 -1.0350468159 -22.663898468 -9.9504461559e-07
          -0.79500597715 -24.053979874 -8.3551185526e-07 0.11972279102 -19.277833939 -0.0074452552944
          0.26771959662 -2.4037668705 -2.9635060628e-07 0.43261510134 -26.239366531 -0.4286493361
          3.1521248817 -28.703924179 -4.2031842895e-07 0.092706918716 -19.410272598 -0.0070728990249
          0.83208346367 -13.837668419 -1.3958906493e-06 1.1698509455 -25.92074585 0.84727776051
          11.605268478 -32.347492218 -7.4049779641e-08 0.12574347854 -21.17117691 -0.026245180517
          0.69621145725 -4.7140445709 -6.3342469048e-07 8.3829593658 -32.074028015 -0.53621959686
          18.086658478 -32.931819916 0.31665679812 0.44254767895 -26.228948593 -6.8451362267e-07
          1.249001503 -7.1473946571 0.10197310895 0.8046888113 -10.628927231 -0.13312527537
          0.088480390608 -19.434263229 -1.0945163922e-06 4.6642436981 -28.710577011 0.59200388193
          0 0 0 8.3944950104 -32.085277557 -0.26796856523
          1.3043489456 -7.2063751221 0.040456246585 14.839045525 -32.625183105 0.29817378521
          -1.0248473883 -22.690711975 0.52825421095 -0.76266652346 -24.094503403 0.47673916817
          0.25650936365 -2.3981575966 0.049282439053 3.1337518692 -28.705793381 0.35736349225
          0.81552100182 -13.757634163 -0.11582694948 11.602489471 -32.341720581 0.27990850806
          8.3976678848 -32.090080261 -1.6588471397e-07 1.9241244793 -28.824518204 -0.77328044176
          1.9377608299 -21.157222748 0.014257073402 1.3376392126 -7.2310509682 -9.5590326055e-07
          0.68733108044 -4.7132663727 0.019416119903 2.1014931202 -21.353507996 0.051668833941
          0.43261528015 -26.239366531 0.42864796519 1.9793627262 -28.811223984 -0.38560289145
          0.092707909644 -19.410272598 0.0070708352141 5.4672765732 -31.892690659 -0.5630812645
          18.084571838 -32.90555954 0.63469278812 0 0 0