<?xml version="1.0"?>
<VTKFile type="UnstructuredGrid" version="0.1" byte_order="LittleEndian" header_type="UInt32" compressor="vtkZLibDataCompressor">
  <UnstructuredGrid>
    <Piece NumberOfPoints="6405" NumberOfCells="4800">
      <PointData>
        <DataArray type="Float32" Name="DISPLACEMENT" NumberOfComponents="3" ComponentName0="X-DISPLACEMENT" ComponentName1="Y-DISPLACEMENT" ComponentName2="Z-DISPLACEMENT" format="ascii" RangeMin="0" RangeMax="365.09862438">
          0 0 0 0 0 0
          2.7404794693 -1.5760751963 -1.2659374475 0 0 0
          1.5873095989 -0.88291174173 -0.85701954365 0 0 0
          2.5197207928 -1.8166947365 -0.49938461185 1.3809081316 -1.0920329094 -0.34892946482
          0 0 0 4.9920725822 -3.2712404728 -1.2978829145
          0 0 0 4.9295582771 -3.5544097424 -0.6603410244
          3.1957654953 -2.7312324047 -0.95251536369 0 0 0
          0 0 0 2.5362198353 -1.8865929842 2.671826671e-08
          0.87403184175 -0.57423043251 -0.49902978539 1.3739683628 -1.1297761202 5.8078550857e-09
          3.1254863739 -2.97067523 -0.48374480009 0.7472088933 -0.78214293718 -0.20580875874
          4.8784546852 -3.6317973137 3.4682450689e-08 1.7411798239 -2.3645370007 -0.58450031281
          0 0 0 3.082981348 -3.0419578552 -1.6117419621e-09
          1.6584777832 -2.5859866142 -0.30000802875 0 0 0
          7.0038118362 -5.672855854 -1.1979540586 0 0 0
          0.74143522978 -0.81613427401 -1.3514624975e-08 0 0 0
          0 0 0 2.5197207928 -1.8166946173 0.49938464165
          4.6878237724 -5.1746850014 -0.91487675905 7.0256462097 -5.8856186867 -0.60523843765
          -0.039643369615 -0.49932453036 -0.094835482538 1.3809081316 -1.0920329094 0.34892946482
          4.6985220909 -5.3747029305 -0.46392390132 -0.13451619446 -0.73197287321 -0.064146444201
          1.6227966547 -2.6470577717 -3.6170700213e-08 4.9295582771 -3.5544097424 0.660341084
          0 0 0 0 0 0
          0.076831772923 -2.2189104557 -0.2481148243 2.6735186577 -4.8443508148 -0.63840943575
          7.004073143 -5.9563326836 3.0881597723e-08 3.1254863739 -2.97067523 0.48374480009
          2.6308059692 -5.0255050659 -0.32467547059 0.7472088933 -0.78214287758 0.20580872893
          4.6850452423 -5.4362421036 -1.8527309464e-08 -0.014462005347 -2.4321022034 -0.13773737848
          -0.15750735998 -0.77856355906 -3.739561194e-08 0 0 0
          8.8006238937 -8.5067529678 -1.0427918434 0 0 0
          6.0964980125 -8.0655498505 -0.85005956888 1.6584777832 -2.5859863758 0.30000796914
          8.8489780426 -8.6524524689 -0.52559274435 2.7404792309 -1.5760751963 1.2659374475
          0 0 0 0 0 0
          -0.038739990443 -2.4940993786 -6.9683657955e-08 2.6134879589 -5.0803461075 -6.4093036656e-08
          -1.2638883591 -0.6591103673 0.15357494354 6.1315288544 -8.2055339813 -0.42688652873
          1.5873095989 -0.88291168213 0.85701954365 0.48494148254 -4.6681113243 -0.40302523971
          0 0 0 7.0256462097 -5.8856186867 0.60523849726
          -1.4332488775 -0.8389852047 0.058992058039 0.41503071785 -4.8278360367 -0.20693737268
          4.6985220909 -5.3747029305 0.46392387152 -0.13451619446 -0.73197281361 0.064146369696
          3.6613218784 -7.7599754333 -0.66541677713 -1.450116396 -2.3742785454 -0.12769912183
          8.8431577682 -8.7006797791 1.4234195156e-08 4.9920725822 -3.2712402344 1.2978829145
          0 0 0 0 0 0
          3.6441745758 -7.8814630508 -0.33481141925 3.1957654953 -2.7312321663 0.95251536369
          6.1342787743 -8.2504692078 -4.5211944411e-08 -1.5768435001 -2.5177330971 -0.041246123612
          0.87403178215 -0.5742303133 0.49902972579 -1.4904052019 -0.89577031136 -7.6546662342e-08
          0.40160682797 -4.8800439835 -1.111375596e-07 2.6308059692 -5.0255050659 0.32467535138
          -0.014462030493 -2.4321022034 0.13773724437 3.6381528378 -7.9214162827 -1.0144670881e-07
          1.7411797047 -2.3645367622 0.5845002532 -1.5957591534 -2.5885891914 -1.1081859697e-07
          1.1462528706 -7.5785293579 -0.53001624346 8.8489780426 -8.6524524689 0.52559274435
          7.0038118362 -5.6728553772 1.1979540586 0 0 0
          10.381606102 -11.610563278 -0.90892350674 0 0 0
          0 0 0 -1.29799366 -4.7285366058 -0.32914280891
          1.0987528563 -7.6703047752 -0.2640376687 10.429860115 -11.701086044 -0.45597583055
          7.4165492058 -11.211788177 -0.78825688362 6.1315288544 -8.2055339813 0.42688643932
          -0.19240969419 -1.8618831635 -0.30805662274 0 0 0
          4.6878237724 -5.1746845245 0.91487669945 -0.039643410593 -0.49932444096 0.094835400581
          -1.4123342037 -4.8140854836 -0.14776945114 -1.4332488775 -0.83898514509 -0.0589921996
          -0.30102869868 -1.8690809011 0.006978134159 0.41503065825 -4.8278355598 0.20693714917
          7.4544315338 -11.300485611 -0.39335545897 3.6441745758 -7.8814630508 0.33481121063
          1.0914520025 -7.706284523 -1.6028356242e-07 10.431853294 -11.731697083 -1.4658138703e-08
          -1.5872168541 -8.2637042999 -0.14602701366 -1.5768436193 -2.5177330971 0.041245900095
          0 0 0 4.6810593605 -10.918433189 -0.67317390442
          0.076831698418 -2.2189104557 0.24811466038 2.6735186577 -4.844350338 0.63840925694
          -1.4311454296 -4.8598742485 -1.6066677233e-07 7.4623947144 -11.328877449 -8.0866293217e-08
          -0.37688666582 -1.9176319838 -1.9267883999e-07 -1.8215608597 -8.633026123 -0.38754087687
          4.679983139 -10.990036964 -0.33674886823 8.8006238937 -8.5067529678 1.0427918434
          0 0 0 -0.86650645733 -7.6451706886 -0.5410399437
          6.0964980125 -8.0655488968 0.85005944967 -1.72826612 -8.5428991318 -3.0946823699e-06
          -0.95117419958 -7.6595101357 -0.255607903 4.6800508499 -11.014202118 -1.4476925969e-07
          -1.2638885975 -0.65911024809 -0.15357506275 1.098752737 -7.6703047752 0.26403734088
          1.9358323812 -10.731799126 -0.60455137491 10.429860115 -11.701085091 0.45597580075
          -2.2138466835 -5.4678926468 -0.80015993118 0.48494133353 -4.6681113243 0.40302500129
          0 0 0 -1.4123343229 -4.8140850067 0.14776910841
          1.9107840061 -10.771778107 -0.30159670115 -0.3010288775 -1.8690809011 -0.0069792116992
          -2.3402738571 -5.2569570541 -0.2847135365 7.4544315338 -11.300485611 0.39335528016
          3.66132164 -7.7599754333 0.66541659832 -1.4501165152 -2.3742785454 0.12769888341
          11.784285545 -14.856903076 -0.80727857351 0 0 0
          -0.96191519499 -7.6879677773 -2.2133582434e-07 8.6558675766 -14.490264893 -0.7360112071
          11.824453354 -14.909968376 -0.40398266912 0 0 0
          -0.84911966324 -3.2371325493 0.17234504223 8.6892747879 -14.542667389 -0.36621260643
          1.9071447849 -10.792032242 -2.1178358622e-07 -0.93981432915 -3.3669891357 0.070524334908
          -1.8215607405 -8.6330289841 0.38753941655 -2.321385622 -5.2464556694 -1.4021678396e-07
          4.679983139 -10.990036964 0.3367485702 5.7112007141 -14.202525139 -0.66678786278
          -1.3061249256 -7.0636963844 0.0049556316808 11.829377174 -14.927928925 -5.3977895931e-08
          0 0 0 -1.5053553581 -7.1248598099 -0.079116217792
          5.7196612358 -14.240386963 -0.33276253939 8.6980447769 -14.559000969 -1.235451208e-07
          -0.99375331402 -3.3568754196 -2.8356512871e-07 1.1462526321 -7.5785293579 0.53001588583
          -0.28237304091 -10.803962708 -0.68220484257 10.381606102 -11.610563278 0.90892344713
          0 0 0 -1.7883034945 -8.3659362793 -0.92560952902
          -0.95117431879 -7.6595101357 0.25560745597 -1.2979938984 -4.728536129 0.32914245129
          7.4165492058 -11.211788177 0.78825670481 -0.19240950048 -1.8618830442 0.3080561161
          -1.8053427935 -8.2385921478 -0.41541528702 -0.32525643706 -10.769968987 -0.32870042324
          1.9107838869 -10.771777153 0.30159628391 -2.3402740955 -5.2569565773 0.28471317887
          5.7228684425 -14.252892494 -1.9158984799e-07 -1.6612262726 -7.1287064552 -1.4330838667e-06
          2.7946476936 -14.004335403 -0.63812929392 -1.7910137177 -9.3208179474 -0.32765138149
          -1.5872155428 -8.2637062073 0.14602553844 11.824453354 -14.909968376 0.40398254991
          4.6810593605 -10.918433189 0.6731736064 0 0 0
          -0.32839360833 -10.786869049 -2.8321221635e-07 -1.7614842653 -8.2785081863 -2.9640992238e-07
          2.7887916565 -14.013394356 -0.31871595979 8.6892747879 -14.542667389 0.36621233821
          -2.2515232563 -9.9363746643 -0.24082747102 -0.93981462717 -3.3669893742 -0.070525102317
          -0.86650669575 -7.6451702118 0.54103940725 2.7891321182 -14.022522926 -2.6267304065e-07
          5.719660759 -14.240386963 0.33276215196 -1.5053551197 -7.1248612404 0.079115241766
          -2.383638382 -10.30729866 -8.2099279552e-07 13.054585457 -18.173082352 -0.735861063
          0 0 0 13.085442543 -18.20337677 -0.36763900518
          1.9358321428 -10.731798172 0.60455089808 9.8268976212 -17.829402924 -0.69429683685
          -2.2138469219 -5.4678916931 0.80015927553 -1.3700233698 -11.468040466 -0.98976385593
          -0.54747951031 -3.6999049187 0.26670897007 -1.8053429127 -8.2385921478 0.41541469097
          -0.32525658607 -10.769968987 0.32869982719 0 0 0
          9.8539218903 -17.859514236 -0.34512189031 -1.3448010683 -11.365102768 -0.46723276377
          -0.54239034653 -3.7386305332 0.12905666232 0.39667373896 -14.047560692 -0.73747849464
          -2.3309118748 -9.2039270401 -1.1086423397 11.784284592 -14.856903076 0.8072784543
          0 0 0 8.6558675766 -14.490263939 0.73601096869
          13.091170311 -18.213514328 -1.0172233544e-07 -2.4038321972 -9.1205892563 -0.5598526001
          0.38774070144 -13.992862701 -0.35975414515 -0.84911990166 -3.2371332645 -0.17234569788
          6.7377748489 -17.544122696 -0.65250819921 -1.1596820354 -7.1898193359 0.28356826305
          0 0 0 2.7887916565 -14.013394356 0.31871542335
          -2.25152421 -9.936378479 0.24082608521 9.8618478775 -17.868270874 -1.7157054799e-07
          -1.306299448 -11.391857147 -3.6866637743e-07 6.7509489059 -17.562360764 -0.32519590855
          -1.3014185429 -7.300614357 0.11250456423 -0.58226239681 -3.7637462616 -1.0981749199e-07
          5.7112002373 -14.202525139 0.66678750515 -1.3061254025 -7.0636963844 -0.0049564717337
          0.38976153731 -13.998687744 -3.3928643006e-07 -2.4066646099 -9.0898351669 -4.6320158731e-07
          -0.28237330914 -10.803962708 0.68220424652 6.7557353973 -17.567722321 -2.4042120117e-07
          -1.3363199234 -7.372672081 -6.3977282139e-08 -1.7883037329 -8.3659362793 0.92560899258
          13.085442543 -18.20337677 0.36763882637 3.6958301067 -17.331293106 -0.64353585243
          0 0 0 -1.9132521152 -9.3817195892 -0.11634062231
          3.7019965649 -17.325382233 -0.3214430809 9.8539218903 -17.859514236 0.34512156248
          -0.54239034653 -3.7386307716 -0.12905685604 -1.3448011875 -11.365102768 0.46723201871
          -2.0018239021 -9.733042717 -0.02582247369 2.7946474552 -14.004335403 0.63812875748
          -0.90735799074 -14.583585739 -0.98556441069 0.38774052262 -13.992862701 0.35975345969
          -1.7910147905 -9.3208246231 0.32764932513 -2.4038324356 -9.12059021 0.55985170603
          -1.8582491875 -12.462587357 -1.1915733814 -0.87108010054 -14.488237381 -0.47565767169
          3.7049527168 -17.327735901 -3.1193744121e-07 6.7509489059 -17.562360764 0.32519543171
          -1.3014185429 -7.3006153107 -0.11250510067 -1.7688381672 -12.402312279 -0.5964499712
          -1.9633716345 -9.9272499084 5.6401950133e-07 14.233633041 -21.52117157 -0.68878436089
          0 0 0 -0.36657837033 -3.997282505 0.20536850393
          -0.84282159805 -14.497824669 -4.2857382709e-07 1.139739275 -17.328199387 -0.7392732501
          10.943874359 -21.193193436 -0.66266793013 13.054585457 -18.173082352 0.73586082458
          0 0 0 0 0 0
          -1.6996742487 -12.425394058 -4.8988465551e-07 -1.7826675177 -10.110706329 -0.39126858115
          14.255990028 -21.53960228 -0.34379044175 1.1506514549 -17.268722534 -0.36277991533
          10.964482307 -21.211565018 -0.32938438654 9.8268966675 -17.829402924 0.69429647923
          -0.35911726952 -3.9836134911 0.10117758811 -1.3700236082 -11.468039513 0.98976314068
          -0.54747962952 -3.6999053955 -0.2667092979 -2.0181889534 -10.307435036 -0.26908147335
          3.7019965649 -17.325382233 0.32144245505 -2.0018229485 -9.733045578 0.025823112577
          7.7536406517 -20.90914917 -0.63515508175 0.39667347074 -14.047560692 0.73747777939
          -2.3309118748 -9.2039270401 1.1086417437 0 0 0
          -0.84209543467 -7.5699205399 0.16576887667 14.261533737 -21.545578003 -1.5609384718e-07
          -0.37687218189 -3.999655962 8.752072489e-08 1.1567981243 -17.267238617 -3.8924125079e-07
          7.7681250572 -20.917942047 -0.31635609269 6.7377748489 -17.544122696 0.65250772238
          10.971069336 -21.216339111 -2.2366661767e-07 -1.1596820354 -7.1898202896 -0.28356862068
          -1.9960670471 -10.351394653 1.8965948811e-08 -0.92275190353 -7.5849795341 0.11662833393
          -0.87108016014 -14.488237381 0.47565680742 -1.7688381672 -12.402312279 0.59644901752
          -1.512159586 -15.487220764 -1.1558035612 7.7733883858 -20.919782639 -2.9046458394e-07
          -0.94671291113 -7.6246118546 1.9514682492e-07 -1.4352556467 -15.433434486 -0.57528406382
          4.6160850525 -20.68299675 -0.63394755125 0 0 0
          -1.5556713343 -10.745898247 -0.037649419159 14.255990028 -21.53960228 0.34379014373
          -0.35911741853 -3.9836137295 -0.1011774689 1.1506513357 -17.268722534 0.36277911067
          4.6283130646 -20.671836853 -0.3165717721 3.6958298683 -17.331293106 0.64353519678
          10.964482307 -21.211565018 0.3293839395 -0.36185947061 -17.744382858 -0.95312976837
          -2.4837779999 -13.091781616 -1.1072925329 -1.9132504463 -9.3817243576 0.11634081602
          -1.7426685095 -10.899910927 0.01409064047 -2.018188715 -10.307436943 0.26908162236
          -0.32988518476 -17.642274857 -0.46581357718 -2.4999811649 -13.085844994 -0.59215891361
          -1.3807311058 -15.446159363 -5.3288340496e-07 -0.90735816956 -14.583584785 0.98556357622
          7.7681250572 -20.917942047 0.31635549664 -1.8582491875 -12.462587357 1.1915724277
          4.632850647 -20.671129227 -3.5956858824e-07 -0.92275214195 -7.584980011 -0.116628021
          -1.7615618706 -10.963346481 2.7079920528e-07 -0.31320768595 -17.630304337 -4.7674092229e-07
          -2.4878406525 -13.070009232 -5.5271590327e-07 -3.9228971004 -10.803572655 -0.62268340588
          1.9233425856 -20.636203766 -0.72019922733 14.233633041 -21.52117157 0.68878406286
          0 0 0 -1.4352556467 -15.433434486 0.57528305054
          -0.36657860875 -3.9972827435 -0.20536851883 -4.0238547325 -10.814136505 -0.27375099063
          1.1397389174 -17.328199387 0.73927241564 10.943874359 -21.193193436 0.66266745329
          1.9429225922 -20.579469681 -0.3556432426 15.354186058 -24.88524437 -0.66051006317
          0 0 0 -1.7826673985 -10.11070919 0.39126813412
          15.369393349 -24.899442673 -0.32952865958 -0.1842495352 -4.1629366875 0.096072375774
          12.020341873 -24.56741333 -0.63993084431 4.6283130646 -20.671836853 0.31657102704
          0 0 0 -1.7426688671 -10.89991188 -0.01409023162
          12.035252571 -24.581483841 -0.31821128726 -0.17485247552 -4.1198468208 0.04795383662
          -0.32988527417 -17.642274857 0.4658126533 -2.4999809265 -13.085844994 0.59215772152
          7.7536406517 -20.909147263 0.6351544857 -4.068520546 -10.856593132 1.970016541e-07
          1.9514125586 -20.576108932 -4.3409423256e-07 -0.84209597111 -7.5699214935 -0.16576889157
          -1.1215848923 -18.472417831 -1.1086078882 -0.52302765846 -8.1964902878 0.10977934301
          8.7536773682 -24.285013199 -0.61786323786 -1.8696926832 -16.496713638 -1.2003605366
          15.374354362 -24.903877258 -2.1582222587e-07 0 0 0
          -1.0547462702 -18.40401268 -0.55710142851 12.040439606 -24.584854126 -2.7892190246e-07
          -0.18390697241 -4.1244330406 1.2318439246e-07 8.7677764893 -24.29108429 -0.30767437816
          -0.54797047377 -8.1772975922 0.069501638412 -1.803971529 -16.495077133 -0.61129903793
          -1.5121597052 -15.487220764 1.1558026075 -1.0097064972 -18.396995544 -5.6793993508e-07
          -3.2300624847 -13.031596184 -0.57305788994 -4.0238547325 -10.814137459 0.27375105023
          0.25485256314 -20.933727264 -0.91782647371 8.772901535 -24.291912079 -3.4132432347e-07
          4.6160845757 -20.68299675 0.63394683599 1.942922473 -20.579469681 0.35564237833
          -1.7534542084 -16.507837296 -6.3377842707e-07 -0.57085233927 -8.1881723404 1.5455030677e-07
          -1.5556722879 -10.745900154 0.037649150938 15.369393349 -24.899442673 0.32952824235
          5.5408573151 -24.050443649 -0.61749249697 -3.3845620155 -13.266699791 -0.36585965753
          -1.6862714291 -11.949615479 0.17516304553 0.29337072372 -20.847284317 -0.45166841149
          -0.36185967922 -17.744382858 0.9531288743 -2.483777523 -13.091781616 1.1072907448
          0 0 0 -1.7492197752 -11.976260185 0.031164919958
          12.035252571 -24.581483841 0.31821072102 -0.17485263944 -4.1198472977 -0.047953628004
          5.5558195114 -24.039665222 -0.30835992098 -3.3871562481 -13.337821007 -1.5589981217e-07
          0.31358966231 -20.843318939 -5.1506413001e-07 -1.0547462702 -18.40401268 0.55710029602
          5.5610151291 -24.038488388 -4.0562031245e-07 -1.7610118389 -12.004831314 6.0155642245e-08
          8.7677764893 -24.291082382 0.3076736927 -0.54797077179 -8.1772975922 -0.069501437247
          -1.8039714098 -16.495077133 0.61129778624 -3.9228975773 -10.803574562 0.62268269062
          1.9233423471 -20.636203766 0.72019833326 2.728764534 -23.967247009 -0.69522887468
          15.354186058 -24.885242462 0.66050964594 0 0 0
          -5.640917778 -19.136585236 -0.15328669548 -0.18424980342 -4.1629371643 -0.096072338521
          12.020341873 -24.56741333 0.63993030787 -3.3845627308 -13.266698837 0.3658592999
          0.29337063432 -20.847284317 0.45166736841 2.7537837029 -23.915311813 -0.34321168065
          -1.5113084316 -19.380723953 -1.1761934757 -5.7022652626 -19.423137665 -0.11054238677
          -1.749220252 -11.976260185 -0.031164953485 5.5558195114 -24.039665222 0.30835911632
          -1.4430422783 -19.350330353 -0.59540742636 -0.63234603405 -21.521692276 -1.070489645
          -2.5993409157 -17.090982437 -1.1085478067 16.441738129 -28.26304245 -0.64658015966
          0 0 0 13.067802429 -27.950967789 -0.62447249889
          -1.1215850115 -18.472417831 1.1086068153 -0.52302831411 -8.1964912415 -0.10977934301
          8.7536773682 -24.285013199 0.61786258221 -2.5956528187 -17.123802185 -0.58965688944
          -0.5596987009 -21.468637466 -0.53134608269 -1.8696924448 -16.496713638 1.2003593445
          16.451187134 -28.278396606 -0.32251298428 0 0 0
          -5.7020230293 -19.517360687 -5.1432624559e-07 2.7642734051 -23.911701202 -4.7426337346e-07
          0.029398016632 -4.2549209595 -0.019308660179 13.07804203 -27.966016769 -0.31069421768
          0.024891583249 -4.2061071396 -0.0082920929417 -1.3969768286 -19.35326767 -6.5520498538e-07
          9.7353448868 -27.670476913 -0.60133802891 -2.5545871258 -17.132398605 -7.2541644158e-07
          -0.51633858681 -21.472063065 -5.9706894717e-07 16.45545578 -28.283119202 -2.8049618095e-07
          0 0 0 0.05669144541 -8.3495130539 -0.02404925786
          9.7486867905 -27.678554535 -0.29947000742 13.08195591 -27.969781876 -3.371641526e-07
          -3.2300646305 -13.03159523 0.57305699587 0.25485235453 -20.933725357 0.91782546043
          0.02503927052 -4.2079205513 7.0209864589e-08 0.055870756507 -8.3001289368 -0.012285701931
          5.5408573151 -24.050443649 0.61749172211 -1.6862723827 -11.949615479 -0.17516352236
          -5.8008060455 -13.49414444 -0.61779201031 0.96031266451 -24.192438126 -0.88212662935
          -5.7022657394 -19.423137665 0.11054138839 2.7537837029 -23.915311813 0.34321072698
          -5.6651124954 -13.684975624 -0.35035029054 1.0013779402 -24.105821609 -0.4291664362
          -1.4430422783 -19.350330353 0.59540611506 9.7533798218 -27.680120468 -3.930898913e-07
          0.055566791445 -8.3047456741 -6.1963292275e-09 6.4560761452 -27.431596756 -0.59711325169
          -2.5956528187 -17.123802185 0.58965545893 -0.55969876051 -21.468637466 0.53134489059
          16.451187134 -28.278396606 0.32251241803 0 0 0
          0.083792135119 -13.621429443 -0.020180974156 6.4725785255 -27.425144196 -0.29807370901
          13.07804203 -27.966016769 0.31069356203 0.087043359876 -13.619867325 -0.010101811029
          -5.5724921227 -13.792814255 -3.9486727132e-07 1.0168510675 -24.091039658 -5.4768241853e-07
          0.024891458452 -4.2061071396 0.0082921991125 9.7486867905 -27.678554535 0.29946923256
          6.4776673317 -27.425161362 -4.5058945375e-07 0.087307035923 -13.680562019 -2.7869543828e-07
          2.7287642956 -23.967245102 0.69522792101 -1.098508358 -22.337995529 -1.1459681988
          0.055870573968 -8.3001289368 0.012285639532 -5.6409196854 -19.136585236 0.15328584611
          -1.9671149254 -20.316829681 -1.2839217186 -1.0133562088 -22.305158615 -0.57076734304
          -1.5113083124 -19.380723953 1.1761921644 -1.8973072767 -20.276716232 -0.63293880224
          -5.6651139259 -13.68497467 0.35034939647 1.001377821 -24.105821609 0.42916536331
          -0.63234609365 -21.521692276 1.0704885721 -2.5993411541 -17.090982437 1.1085464954
          0.094233684242 -19.261734009 -0.010296226479 3.552113533 -27.320268631 -0.6642087698
          16.441738129 -28.26304245 0.64657962322 0 0 0
          13.067802429 -27.950965881 0.62447184324 0.10026906431 -19.464006424 -0.0028209332377
          -0.97540521622 -22.301258087 -6.7865488518e-07 -5.7039279938 -16.428535461 -0.39232137799
          -0.024685814977 -24.643125534 -1.0018594265 3.5819458961 -27.278278351 -0.32739445567
          0.029397763312 -4.2549214363 0.01930863224 -1.8680679798 -20.280183792 -7.3662073419e-07
          6.4725785255 -27.425144196 0.29807281494 0.087043225765 -13.619867325 0.010101178661
          0.041391361505 -24.578166962 -0.50096768141 -5.4376416206 -16.610424042 -0.35547676682
          9.7353448868 -27.670475006 0.60133719444 0.10176909715 -19.537467957 -7.2889832836e-07
          3.5929358006 -27.276771545 -5.1130649581e-07 0.056690990925 -8.3495130539 0.02404903248
          0.06345320493 -24.553153992 -6.2269947421e-07 17.516370773 -31.66192627 -0.64352792501
          0 0 0 -5.1732912064 -16.60228157 -8.5744471789e-07
          17.521289825 -31.682264328 -0.32088324428 0 0 0
          -1.0133562088 -22.305158615 0.57076597214 14.096093178 -31.351819992 -0.61457872391
          -5.8008089066 -13.494142532 0.61779111624 0.96031248569 -24.192438126 0.88212549686
          0.23986704648 -4.1565518379 -0.13241577148 -1.8973071575 -20.276716232 0.63293731213
          14.102588654 -31.371669769 -0.30593308806 0.22203078866 -4.1153764725 -0.063018471003
          6.4560756683 -27.431596756 0.59711235762 17.524835587 -31.688508987 -3.4942237903e-07
          0.10026902705 -19.464006424 0.0028194696642 10.697410583 -31.072664261 -0.58518624306
          0.6304526329 -8.1924619675 -0.15303094685 3.5819456577 -27.278278351 0.32739344239
          0 0 0 1.7273225784 -27.449621201 -0.82206076384
          0.10667603463 -13.406474113 0.022856181487 0.083791650832 -13.621429443 0.020180262625
          0.65306669474 -8.1758861542 -0.092026807368 10.709904671 -31.086465836 -0.29141023755
          14.105364799 -31.377048492 -3.9805655661e-07 0.041391324252 -24.578166962 0.50096642971
          0.10445255786 -13.701102257 0.0074984612875 1.7773439884 -27.385868073 -0.40461605787
          -5.437643528 -16.610424042 0.35547482967 0.23128971457 -4.1199660301 -7.3631163389e-09
          -1.4277024269 -23.249275208 -1.2118039131 10.713936806 -31.090005875 -4.4584277248e-07
          -1.0985082388 -22.337995529 1.1459668875 0.67535454035 -8.1858615875 -1.6293796534e-07
          0.10398732126 -13.811736107 -8.9450253427e-07 -1.3263914585 -23.234596252 -0.58807909489
          1.79167521 -27.377998352 -5.7693705457e-07 -1.9671148062 -20.316829681 1.2839202881
          17.521289825 -31.682264328 0.32088255882 7.3541755676 -30.831119537 -0.5721308589
          -1.6963531971 -21.495685577 -1.491394639 0 0 0
          1.8467015028 -11.952149391 -0.22458699346 -0.57787305117 -25.20063591 -1.0379892588
          1.9161037207 -11.979295731 -0.047607768327 7.3713698387 -30.832715988 -0.28552722931
          14.102588654 -31.371669769 0.3059323132 -1.5422971249 -21.434755325 -0.69371801615
          -0.47654265165 -25.195299149 -0.52490228415 0.22203072906 -4.1153759956 0.063018411398
          0.094233654439 -19.261734009 0.010294690728 3.5521130562 -27.320268631 0.66420775652
          -1.324618578 -23.205812454 -7.5221072393e-07 -5.7039313316 -16.428535461 0.3923188746
          -0.024685893208 -24.643125534 1.0018582344 7.3756866455 -30.835083008 -4.9490216725e-07
          10.709904671 -31.086465836 0.29140934348 -1.57162714 -21.408718109 -8.0363969346e-07
          0.65306663513 -8.1758861542 0.092026419938 1.9250912666 -12.006291389 -4.7152479965e-07
          0.10445252806 -13.701102257 -0.0075001385994 1.7773438692 -27.385868073 0.40461489558
          -0.44506049156 -25.186021805 -6.9286994631e-07 0.6352430582 -27.700250626 -0.90178751945
          0.07517837733 -15.738567352 0.025188673288 0.72021782398 -27.680580139 -0.45676711202
          0.065785758197 -16.04066658 -0.0017919531092 17.516370773 -31.66192627 0.64352720976
          0 0 0 -1.3263912201 -23.234596252 0.58807760477
          5.9048290253 -19.156932831 0.16551539302 4.3800210953 -30.691362381 -0.62156230211
          5.9510188103 -19.444688797 0.11240043491 14.096093178 -31.351819992 0.61457794905
          0.23986682296 -4.1565513611 0.13241559267 4.4120979309 -30.663476944 -0.30693587661
          7.3713698387 -30.832715988 0.28552624583 -1.5422970057 -21.434755325 0.69371634722
          1.9161039591 -11.979294777 0.047606755048 -0.47654262185 -25.195299149 0.52490091324
          0.74995857477 -27.679819107 -6.4188719762e-07 0.068757094443 -16.137233734 -1.0087173905e-06
          10.697410583 -31.072664261 0.58518534899 0.63045233488 -8.1924619675 0.15303048491
          1.72732234 -27.449621201 0.82205963135 5.9503827095 -19.536949158 -9.9132250853e-07
          0.10667584091 -13.40647316 -0.022857533768 4.4215769768 -30.665136337 -5.4648967307e-07
          18.594104767 -35.097740173 -0.64823967218 0 0 0
          -1.4277023077 -23.249275208 1.2118024826 0.72021782398 -27.680580139 0.45676583052
          0 0 0 15.113544464 -34.785934448 -0.60907822847
          -1.0475689173 -24.291963577 -1.0295964479 0.065785877407 -16.04066658 0.0017900220118
          0.41320580244 -3.9873790741 -0.23589003086 -0.88286930323 -25.749082565 -0.97579717636
          18.595497131 -35.125415802 -0.32308983803 7.3541750908 -30.831119537 0.57212984562
          15.116854668 -34.813007355 -0.30333486199 0.39923742414 -3.976252079 -0.11352837086
          -1.6963529587 -21.495685577 1.4913930893 -0.93439525366 -24.428033829 -0.48456099629
          1.8467013836 -11.952149391 0.22458598018 2.5234606266 -30.721158981 -0.74065464735
          5.9510192871 -19.444688797 -0.11240235716 -0.57787299156 -25.20063591 1.0379879475
          6.0948081017 -13.390634537 0.60027062893 4.4120979309 -30.663476944 0.30693477392
          -0.77995121479 -25.831218719 -0.49266523123 5.9352025986 -13.603115082 0.33866876364
          2.5842988491 -30.684579849 -0.36589378119 11.640062332 -34.506847382 -0.5690972805
          18.598251343 -35.133945465 -4.2227122776e-07 0.93004065752 -7.5680713654 -0.19708560407
          0 0 0 11.650678635 -34.528862 -0.28355801105
          1.0084512234 -7.5843324661 -0.13029243052 15.118612289 -34.820674896 -4.6152277378e-07
          0.068562969565 -28.033327103 -0.88891816139 -0.99727576971 -24.350242615 -8.2051110439e-07
          -0.78511464596 -25.830348969 -7.4960848906e-07 0.003630341962 -22.42152977 -0.063566274941
          0.41659244895 -3.991140604 -1.5771780681e-07 0.17368087173 -28.08149147 -0.44806587696
          2.6024250984 -30.685117722 -6.0211397113e-07 0.022335099056 -22.892711639 -0.028984662145
          5.8379406929 -13.725375175 -1.0205503713e-06 0.635242939 -27.700250626 0.90178626776
          11.653709412 -34.535053253 -4.9978029892e-07 0.07517849654 -15.738567352 -0.025190150365
          1.0320129395 -7.6214170456 -3.6111427448e-07 8.2265291214 -34.264476776 -0.54343134165
          18.595497131 -35.125415802 0.32308897376 0.20058622956 -28.094404221 -6.9787859047e-07
          1.6777288914 -10.771526337 0.0089653655887 5.9048299789 -19.156932831 -0.16551725566
          0.021001545712 -22.813570023 -9.4851469612e-07 4.3800210953 -30.691362381 0.62156116962
          0 0 0 8.2425346375 -34.27684021 -0.27143362164
          1.8631774187 -10.922810555 -0.019750004634 15.116854668 -34.813007355 0.30333393812
          -0.93439501524 -24.428033829 0.48455935717 -0.77995109558 -25.831218719 0.49266374111
          0.39923739433 -3.9762518406 0.11352800578 2.5842986107 -30.684579849 0.36589255929
          5.9352030754 -13.603115082 -0.33867076039 11.650678635 -34.528862 0.28355699778
          8.2457542419 -34.282543182 -5.3910400766e-07 1.3877899647 -30.814807892 -0.78032290936
          6.0470499992 -16.447429657 0.32423070073 1.8784090281 -10.973712921 -5.0791760486e-07
          1.0084513426 -7.5843324661 0.13029173017 5.7512335777 -16.639196396 0.32390588522
          0.17368091643 -28.08149147 0.44806447625 1.4744889736 -30.820653915 -0.39130362868
          0.022335426882 -22.892711639 0.028982711956 5.199909687 -34.09677887 -0.57393372059
          18.594104767 -35.097740173 0.64823883772 0 0 0
          4.0538883209 -10.82545948 0.6024838686 5.2320432663 -34.084381104 -0.28288471699