<?xml version="1.0"?>
<VTKFile type="UnstructuredGrid" version="0.1" byte_order="LittleEndian" header_type="UInt32" compressor="vtkZLibDataCompressor">
  <UnstructuredGrid>
    <Piece NumberOfPoints="6405" NumberOfCells="4800">
      <PointData>
        <DataArray type="Float32" Name="DISPLACEMENT" NumberOfComponents="3" ComponentName0="X-DISPLACEMENT" ComponentName1="Y-DISPLACEMENT" ComponentName2="Z-DISPLACEMENT" format="ascii" RangeMin="0" RangeMax="749.3783926">
          0 0 0 0 0 0
          4.6343607903 -2.7574930191 -2.1853957176 0 0 0
          3.2289438248 -1.5592298508 -1.8371309042 0 0 0
          4.1878285408 -2.9722161293 -0.87392652035 2.7942457199 -1.7317134142 -0.75184714794
          0 0 0 8.4491128922 -4.6779608727 -2.3556087017
          0 0 0 8.2702732086 -4.9508481026 -1.2146357298
          6.5918798447 -3.6672582626 -2.0996427536 0 0 0
          0 0 0 4.2108659744 -3.0623652935 4.7709622919e-08
          2.6523678303 -1.0091588497 -1.6154748201 2.8014819622 -1.7725101709 5.2835908981e-09
          6.4137210846 -3.8705806732 -1.0660458803 2.2904913425 -1.1570233107 -0.65830034018
          8.1748781204 -5.0253334045 -9.6189909371e-09 5.2775034904 -2.8219871521 -1.8198775053
          0 0 0 6.3282003403 -3.943977356 -7.7593348635e-08
          5.1200633049 -3.0043282509 -0.93068730831 0 0 0
          12.165968895 -7.0097002983 -2.3556845188 0 0 0
          2.302478075 -1.1919621229 -1.567883956e-08 0 0 0
          0 0 0 4.187828064 -2.9722161293 0.87392657995
          9.9130878448 -5.9586310387 -2.0910453796 12.131592751 -7.2238698006 -1.197273016
          2.1739075184 -0.69982665777 -1.3691571951 2.7942454815 -1.7317134142 0.75184714794
          9.8844919205 -6.1598210335 -1.0613472462 1.8693822622 -0.84495508671 -0.56294381618
          5.0430393219 -3.0621850491 -1.2167720342e-07 8.2702732086 -4.9508481026 1.2146356106
          0 0 0 0 0 0
          4.2762236595 -2.2750887871 -1.5511745214 8.0613889694 -5.0806827545 -1.8295987844
          12.088438034 -7.3025450706 -1.4965355888e-07 6.4137206078 -3.8705806732 1.0660456419
          8.0261039734 -5.2729353905 -0.9288982749 2.2904913425 -1.1570233107 0.65830028057
          9.8440999985 -6.2279129028 -2.3991836429e-07 4.1425814629 -2.4532086849 -0.79216098785
          1.8836003542 -0.87429511547 -2.6831697753e-08 0 0 0
          15.880929947 -9.6459093094 -2.276222229 0 0 0
          13.232685089 -8.6053924561 -2.0281708241 5.1200633049 -3.0043282509 0.93068701029
          15.897496223 -9.8379306793 -1.1491491795 4.6343603134 -2.7574927807 2.1853957176
          0 0 0 0 0 0
          4.0790462494 -2.5077054501 -1.5058394354e-07 7.9891204834 -5.3339672089 -3.0478528856e-07
          1.735196352 -0.51435351372 -1.1196862459 13.24982357 -8.7941198349 -1.0221186876
          3.2289435863 -1.5592297316 1.837130785 6.505961895 -4.414437294 -1.5580801964
          0 0 0 12.131592751 -7.2238698006 1.1972726583
          1.4846857786 -0.65739524364 -0.46125456691 6.4715061188 -4.6029028893 -0.79246801138
          9.8844909668 -6.1598210335 1.0613467693 1.869382143 -0.8449550271 0.56294375658
          10.900521278 -7.7106204033 -1.7784943581 3.3836686611 -1.9323147535 -1.2789965868
          15.884158134 -9.9041795731 -3.7437357037e-07 8.4491119385 -4.6779603958 2.3556084633
          0 0 0 0 0 0
          10.909947395 -7.8981199265 -0.89676058292 6.5918793678 -3.6672580242 2.0996425152
          13.240014076 -8.8583364487 -4.8144488574e-07 3.2702531815 -2.1072218418 -0.65256249905
          2.6523675919 -1.0091588497 1.6154747009 1.4985175133 -0.68542850018 -3.2502253333e-08
          6.4376034737 -4.6599860191 -3.5056325487e-07 8.0261030197 -5.2729353905 0.92889761925
          4.142580986 -2.4532086849 0.79216068983 10.898758888 -7.9593853951 -5.6355543165e-07
          5.2775030136 -2.8219869137 1.8198771477 3.2183656693 -2.160046339 -1.6833811856e-07
          8.8390960693 -7.0000090599 -1.5237569809 15.89749527 -9.8379306793 1.149148345
          12.165967941 -7.0096998215 2.355684042 0 0 0
          19.553691864 -12.641576767 -2.2135379314 0 0 0
          0 0 0 5.1308755875 -3.9636092186 -1.2928727865
          8.8411121368 -7.1852302551 -0.76861315966 19.580369949 -12.820529938 -1.11030972
          16.516174316 -11.611203194 -1.9752720594 13.249822617 -8.7941198349 1.022117734
          1.3214066029 -0.42057919502 -0.87664628029 0 0 0
          9.9130868912 -5.9586305618 2.0910449028 2.1739070415 -0.69982659817 1.3691570759
          5.096862793 -4.1464748383 -0.65680152178 1.4846856594 -0.65739518404 0.4612544775
          1.1209914684 -0.55814099312 -0.36162823439 6.4715056419 -4.6029028893 0.79246729612
          16.542041779 -11.791134834 -0.99044406414 10.909946442 -7.8981194496 0.89675945044
          8.8294019699 -7.2443375587 -6.2541971602e-07 19.58180809 -12.881581306 -6.8154707833e-07
          2.5538058281 -1.7432565689 -1.0156712532 3.270252943 -2.1072218418 0.65256214142
          0 0 0 13.74283123 -10.717217445 -1.7370363474
          4.2762227058 -2.2750885487 1.5511741638 8.0613889694 -5.0806822777 1.8295980692
          5.0672588348 -4.2017416954 -3.8289064719e-07 16.544908524 -11.851500511 -8.0299594174e-07
          1.1323952675 -0.58534914255 -3.3793973842e-08 2.4574644566 -1.910359621 -0.51710045338
          13.761869431 -10.897285461 -0.87070322037 15.880928993 -9.6459093094 2.2762212753
          0 0 0 6.9775829315 -6.482108593 -1.2719993591
          13.232684135 -8.6053924561 2.0281698704 2.415776968 -1.9616843462 -1.7744503111e-07
          6.9733781815 -6.6616506577 -0.64145368338 13.763181686 -10.95706749 -8.9875373988e-07
          1.7351959944 -0.51435345411 1.1196860075 8.8411121368 -7.1852302551 0.76861190796
          11.212919235 -9.9845285416 -1.4953223467 19.580369949 -12.820528984 1.1103082895
          3.8620886803 -3.6938657761 -1.0392733812 6.5059609413 -4.414437294 1.5580793619
          0 0 0 5.0968623161 -4.1464748383 0.65680074692
          11.224562645 -10.163312912 -0.74975425005 1.12099123 -0.55814099312 0.36162814498
          3.827504158 -3.866656065 -0.52716332674 16.542041779 -11.791134834 0.99044239521
          10.900520325 -7.7106199265 1.7784930468 3.3836679459 -1.9323146343 1.27899611
          23.173362732 -15.997880936 -2.1675508022 0 0 0
          6.9615187645 -6.7186160088 -6.7123716008e-07 19.754272461 -14.981218338 -1.9363275766
          23.198289871 -16.1704216 -1.0843667984 0 0 0
          0.92950648069 -0.40646103024 -0.64843195677 19.778110504 -15.15471077 -0.9688180685
          11.223917961 -10.221776962 -9.7405393262e-07 0.77358824015 -0.53542387486 -0.26852172613
          2.4574639797 -1.9103595018 0.51710003614 3.801817894 -3.919355154 -4.0354368025e-07
          13.761868477 -10.897285461 0.87070143223 16.565387726 -14.092222214 -1.7064332962
          1.7740945816 -1.6868118048 -0.77228802443 23.204092026 -16.228227615 -1.076243052e-06
          0 0 0 1.6915796995 -1.8410921097 -0.39231586456
          16.584054947 -14.265871048 -0.85338521004 19.784564972 -15.21270752 -1.2075935274e-06
          0.78088510036 -0.56248527765 -3.0582530286e-08 8.8390951157 -7.0000085831 1.5237556696
          8.8878087997 -9.4259338379 -1.2564417124 19.553689957 -12.641575813 2.2135365009
          0 0 0 5.261900425 -6.1467609406 -1.0329935551
          6.9733772278 -6.6616506577 0.64145231247 5.1308746338 -3.9636089802 1.2928719521
          16.516172409 -11.61120224 1.9752702713 1.3214062452 -0.42057919502 0.87664610147
          5.252184391 -6.3160066605 -0.5204564333 8.8925390244 -9.5998258591 -0.62983894348
          11.224561691 -10.163311958 0.7497522831 3.8275036812 -3.866656065 0.52716249228
          16.589086533 -14.323792458 -1.3141097952e-06 1.6585006714 -1.8904942274 -1.8034833715e-07
          13.598842621 -13.34936142 -1.47473526 2.6807079315 -3.5818865299 -0.80732011795
          2.5538051128 -1.7432564497 1.0156707764 23.198289871 -16.1704216 1.0843646526
          13.742829323 -10.717216492 1.7370345592 0 0 0
          8.8903636932 -9.6565742493 -1.0326282336e-06 5.2406039238 -6.3702335358 -7.0435169164e-07
          13.611542702 -13.521842957 -0.73755902052 19.778110504 -15.15471077 0.96881562471
          2.6453368664 -3.7397284508 -0.40893107653 0.77358806133 -0.53542387486 0.26852163672
          6.977581501 -6.482108593 1.2719979286 13.614768982 -13.578923225 -1.3997074575e-06
          16.58405304 -14.265870094 0.85338258743 1.6915793419 -1.8410921097 0.39231544733
          2.623415947 -3.7892577648 -4.1587819055e-07 26.740074158 -19.716129303 -2.1327834129
          0 0 0 26.761241913 -19.884576797 -1.0659611225
          11.212917328 -9.9845275879 1.4953203201 22.947366714 -18.712547302 -1.9065332413
          3.8620874882 -3.6938657761 1.0392725468 6.7341127396 -9.0385665894 -1.0280762911
          0.56332159042 -0.47169625759 -0.44445595145 5.2521834373 -6.3160061836 0.52045500278
          8.8925380707 -9.5998258591 0.62983685732 0 0 0
          22.967580795 -18.881467819 -0.95329660177 6.7333302498 -9.2035150528 -0.51518654823
          0.44490152597 -0.59045749903 -0.1864900887 10.835724831 -12.763595581 -1.2454888821
          3.6746680737 -5.9749479294 -0.81438004971 23.173360825 -15.997879982 2.1675486565
          0 0 0 19.754270554 -14.981218338 1.9363250732
          26.767463684 -19.940559387 -1.5604582586e-06 3.6609888077 -6.1302089691 -0.41014051437
          10.842772484 -12.932080269 -0.62282150984 0.92950612307 -0.40646106005 0.64843177795
          19.361982346 -17.830295563 -1.6828702688 1.0534050465 -1.7536474466 -0.56085252762
          0 0 0 13.611541748 -13.521842957 0.7375562191
          2.6453363895 -3.7397284508 0.40893021226 22.97413826 -18.937749863 -1.6984490685e-06
          6.7300205231 -9.2578458786 -1.0770572771e-06 19.378320694 -17.998893738 -0.84098899364
          0.98230904341 -1.8920595646 -0.28419753909 0.44702914357 -0.61952549219 -2.4791960485e-08
          16.565385818 -14.09222126 1.7064305544 1.7740937471 -1.6868118048 0.77228748798
          10.844346046 -12.987776756 -1.4679651485e-06 3.6500906944 -6.1811738014 -7.2748844104e-07
          8.8878078461 -9.4259338379 1.2564394474 19.383800507 -18.055231094 -1.8114118348e-06
          0.95667225122 -1.9398751259 -1.7864272195e-07 5.2618989944 -6.1467609406 1.0329921246
          26.761241913 -19.88457489 1.0659580231 15.983451843 -17.082605362 -1.4585086107
          0 0 0 1.6048492193 -3.6099634171 -0.60655492544
          15.995285988 -17.249990463 -0.72886794806 22.967580795 -18.881467819 0.95329320431
          0.44490134716 -0.59045755863 0.18648999929 6.7333297729 -9.2035140991 0.51518434286
          1.5703636408 -3.7510724068 -0.30694296956 13.598841667 -13.34936142 1.474732399
          8.2613325119 -12.335627556 -1.0246906281 10.84277153 -12.932080269 0.62281852961
          2.6807069778 -3.5818865299 0.80731916428 3.6609883308 -6.1302089691 0.41013902426
          4.7472038269 -8.809636116 -0.8172519207 8.2639913559 -12.4968853 -0.51232087612
          15.999330521 -17.305624008 -1.903353791e-06 19.378320694 -17.998893738 0.84098535776
          0.98230868578 -1.8920595646 0.28419712186 4.743036747 -8.9629983902 -0.40960812569
          1.5522936583 -3.797618866 -4.2223899754e-07 30.259235382 -23.793851852 -2.1047387123
          0 0 0 0.2368388772 -0.62009507418 -0.27605322003
          8.2642831802 -12.550660133 -1.5212232256e-06 12.805830956 -16.478263855 -1.2364033461
          26.099832535 -22.802097321 -1.8822680712 26.74007225 -19.716127396 2.1327803135
          0 0 0 0 0 0
          4.739159584 -9.0146789551 -1.109832283e-06 2.2458977699 -5.9449710846 -0.62219500542
          30.277130127 -23.959367752 -1.0516648293 12.813351631 -16.642353058 -0.61779624224
          26.116966248 -22.967605591 -0.94107139111 22.947364807 -18.712547302 1.906529665
          0.15044210851 -0.73053508997 -0.11946783215 6.7341113091 -9.0385665894 1.0280740261
          0.56332117319 -0.47169628739 0.44445574284 2.2313222885 -6.0867109299 -0.31345555186
          15.995285034 -17.249990463 0.72886413336 1.5703631639 -3.7510724068 0.30694207549
          22.132268906 -21.926765442 -1.6632769108 10.835722923 -12.763594627 1.2454859018
          3.6746666431 -5.9749479294 0.81437849998 0 0 0
          0.43258234859 -1.9307096004 -0.38918167353 30.282699585 -24.014146805 -2.1343239496e-06
          0.14822292328 -0.76520085335 -1.5640463147e-08 12.816047668 -16.696868896 -1.977294005e-06
          22.146476746 -22.091522217 -0.8310970068 19.361980438 -17.830295563 1.6828665733
          26.122756958 -23.022640228 -2.2751464712e-06 1.0534043312 -1.7536475658 0.56085199118
          2.2216935158 -6.1349730492 -7.4274078088e-07 0.37502470613 -2.0566203594 -0.19508223236
          8.2639904022 -12.4968853 0.51231783628 4.7430357933 -8.9629983902 0.40960586071
          5.8852105141 -12.056419373 -0.81788116693 22.151462555 -22.146589279 -2.3910927212e-06
          0.35690385103 -2.1031293869 -1.7314729917e-07 5.8855090141 -12.208662033 -0.40905490518
          18.360754013 -21.177259445 -1.4443832636 0 0 0
          0.70574980974 -3.7490656376 -0.43638750911 30.27712822 -23.959367752 1.0516605377
          0.1504418999 -0.73053514957 0.11946776509 12.813350677 -16.642353058 0.61779224873
          18.371566772 -21.340698242 -0.72170233727 15.983449936 -17.082605362 1.458504796
          26.116966248 -22.967605591 0.94106680155 9.8288192749 -16.018806458 -1.0209441185
          2.9696843624 -8.7180833817 -0.62733322382 1.6048480272 -3.6099634171 0.60655397177
          0.6772018671 -3.8809189796 -0.21962076426 2.2313215733 -6.0867109299 0.31345403194
          9.8330373764 -16.177213669 -0.51008629799 2.9650890827 -8.86165905 -0.31474328041
          5.884988308 -12.260440826 -1.5610216906e-06 8.2613306046 -12.335627556 1.0246875286
          22.146474838 -22.091522217 0.83109217882 4.7472023964 -8.809636116 0.81724959612
          18.3754673 -21.395118713 -2.4857620247e-06 0.37502428889 -2.0566203594 0.19508184493
          0.66342031956 -3.925027132 -4.2439785375e-07 9.8346471786 -16.230220795 -2.0359332211e-06
          2.9612145424 -8.9114532471 -1.1326460481e-06 1.0699367523 -6.0215454102 -0.44984674454
          14.788059235 -20.560108185 -1.2276033163 30.259233475 -23.793849945 2.1047341824
          0 0 0 5.8855080605 -12.208661079 0.40905177593
          0.23683845997 -0.62009513378 0.27605301142 1.0587977171 -6.1597261429 -0.2261325866
          12.805829048 -16.478263855 1.2363992929 26.09982872 -22.802097321 1.882263422
          14.795598984 -20.720781326 -0.61331886053 33.736808777 -28.228132248 -2.0810167789
          0 0 0 2.2458963394 -5.9449710846 0.62219339609
          33.752262115 -28.391378403 -1.0397500992 -0.003296926152 -0.83717662096 -0.1457131952
          29.216442108 -27.246845245 -1.8615033627 18.371564865 -21.340698242 0.72169733047
          0 0 0 0.67720127106 -3.8809192181 0.21961988509
          29.231294632 -27.409734726 -0.93073785305 -0.053338080645 -0.94633990526 -0.063652694225
          9.8330354691 -16.177211761 0.51008224487 2.965088129 -8.86165905 0.31474101543
          22.132266998 -21.926765442 1.6632720232 1.0509185791 -6.2063961029 -7.5173909408e-07
          14.798460007 -20.774259567 -2.5621950499e-06 0.43258154392 -1.9307096004 0.38918116689
          7.0748972893 -15.697834015 -0.81635409594 0.025833757594 -2.1633419991 -0.23240986466
          24.877597809 -26.378223419 -1.6460906267 3.7625482082 -11.907979965 -0.62703251839
          33.757102966 -28.445289612 -2.7991384286e-06 0 0 0
          7.0774354935 -15.849382401 -0.40798696876 29.236303329 -27.463821411 -2.9396117043e-06
          -0.054488930851 -0.98634588718 -4.8322488233e-09 24.890190125 -26.540029526 -0.82254606485
          -0.0075532766059 -2.292514801 -0.11083752662 3.7628495693 -12.053404808 -0.31392663717
          5.8852086067 -12.056418419 0.81787794828 7.0783090591 -15.900917053 -2.0792983833e-06
          1.5106683969 -8.729514122 -0.44944944978 1.0587970018 -6.1597261429 0.22613105178
          11.424629211 -20.076803207 -1.0161054134 24.894592285 -26.594108582 -3.0553410397e-06
          18.360752106 -21.177259445 1.4443781376 14.795597076 -20.720781326 0.61331367493
          3.7619347572 -12.103980064 -1.5885855191e-06 -0.016807232052 -2.3342921734 -1.6882202658e-07
          0.70574867725 -3.749065876 0.43638655543 33.752258301 -28.391376495 1.0397444963
          20.727649689 -25.628767014 -1.4313468933 1.5084480047 -8.873175621 -0.22540520132
          0.13428324461 -3.929238081 -0.25752714276 11.429635048 -20.232997894 -0.50761419535
          9.8288173676 -16.018806458 1.0209399462 2.9696826935 -8.7180833817 0.62733083963
          0 0 0 0.11876502633 -4.0720367432 -0.12669511139
          29.231292725 -27.409734726 0.93073195219 -0.053338307887 -0.94633996487 0.063652642071
          20.737632751 -25.789165497 -0.71521568298 1.5049371719 -8.9223499298 -1.1460205087e-06
          11.431638718 -20.285282135 -2.6223556233e-06 7.077434063 -15.849382401 0.40798276663
          20.741203308 -25.842617035 -3.1495001167e-06 0.11006562412 -4.1124382019 -4.2575743464e-07
          24.890190125 -26.540029526 0.82253992558 -0.0075536994264 -2.292514801 0.11083714664
          3.7628483772 -12.053404808 0.31392341852 1.0699353218 -6.0215454102 0.44984513521
          14.788057327 -20.560108185 1.2275980711 16.775367737 -25.003093719 -1.218644619
          33.736808777 -28.228130341 2.0810110569 0 0 0
          0.30573049188 -6.1377277374 -0.25812405348 -0.003297383897 -0.83717668056 0.14571297169
          29.216438293 -27.246845245 1.8614974022 1.5084471703 -8.873175621 0.22540289164
          11.429634094 -20.232997894 0.50760889053 16.782804489 -25.161092758 -0.60887604952
          4.6101016998 -15.500807762 -0.62373799086 0.30085635185 -6.2906885147 -0.12823875248
          0.11876444519 -4.0720367432 0.12669421732 20.737630844 -25.789163589 0.71520936489
          4.6126852036 -15.647605896 -0.3119789958 8.3034486771 -19.722652435 -0.8130146265
          2.0113320351 -11.860424042 -0.4433836937 37.177970886 -33.01618576 -2.0602829456
          0 0 0 32.301265717 -32.044239044 -1.8431357145
          7.0748953819 -15.697834015 0.81634986401 0.025832917541 -2.1633419991 0.23240937293
          24.877593994 -26.378221512 1.6460844278 2.0132050514 -12.007557869 -0.22201487422
          8.3071184158 -19.873620987 -0.40624630451 3.7625463009 -11.907979965 0.62702924013
          37.19165802 -33.177619934 -1.0293782949 0 0 0
          0.29545107484 -6.3355455399 -7.5571375646e-07 16.78556633 -25.213727951 -3.22480264e-06
          0.0005234752316 -0.98462831974 -0.00037254448398 32.314472198 -32.205070496 -0.92161691189
          0.00047206811723 -1.0973666906 -0.00015794333012 4.6130785942 -15.698373795 -2.1094142539e-06
          27.599494934 -31.182064056 -1.630525589 2.0120837688 -12.058078766 -1.6038691228e-06
          8.3084955215 -19.924797058 -2.6668296869e-06 37.195930481 -33.230857849 -3.5535781535e-06
          0 0 0 0.00084927183343 -2.2935922146 -0.00038165017031
          27.610912323 -31.341567993 -0.81482189894 32.318878174 -32.258415222 -3.692061e-06
          1.510666728 -8.729514122 0.44944706559 11.42462635 -20.076803207 1.016100049
          0.00047830381664 -1.1363244057 -6.6296315104e-09 0.00082751357695 -2.4353010654 -0.00019453010464
          20.727645874 -25.628767014 1.431340456 0.13428209722 -3.9292383194 0.25752618909
          0.52245223522 -8.7869377136 -0.25041249394 13.039045334 -24.502298355 -1.0102491379
          0.3008556664 -6.2906885147 0.12823720276 16.782804489 -25.161092758 0.60886955261
          0.52280664444 -8.9451141357 -0.12481831759 13.044447899 -24.656700134 -0.50472360849
          4.612683773 -15.647605896 0.31197473407 27.614845276 -31.394866943 -3.8051348383e-06
          0.0008134940872 -2.4715461731 -1.7572291711e-07 23.082273483 -30.433996201 -1.4190131426
          2.0132038593 -12.007557869 0.22201165557 8.3071165085 -19.873620987 0.40624094009
          37.191654205 -33.177619934 1.0293711424 0 0 0
          0.0010882231873 -4.0208778381 -0.00038752958062 23.091621399 -30.592002869 -0.70909881592
          32.314468384 -32.205066681 0.92160946131 0.0010699587874 -4.1790289879 -0.00019743118901
          0.52018088102 -8.9938287735 -1.1500411574e-06 13.046517372 -24.708358765 -3.2831330827e-06
          0.00047184311552 -1.0973666906 0.00015787973825 27.610910416 -31.341566086 0.81481426954
          23.094896317 -30.644685745 -3.895536338e-06 0.0010599923553 -4.2165102959 -4.3265893623e-07
          16.775363922 -25.003091812 1.2186380625 5.4992909431 -19.486307144 -0.61893135309
          0.00082710030256 -2.4353010654 0.00019413314294 0.30572906137 -6.1377277374 0.25812241435
          2.557718277 -15.403487206 -0.4355160594 5.5028095245 -19.633888245 -0.30945309997
          4.6100993156 -15.500807762 0.62373369932 2.5611410141 -15.552408218 -0.21788643301
          0.52280580997 -8.9451141357 0.12481598556 13.044445992 -24.656700134 0.50471699238
          8.3034467697 -19.722652435 0.81300914288 2.0113298893 -11.860424042 0.44338038564
          0.0012696721824 -6.1962604523 -0.00041233972297 18.762554169 -29.80311203 -1.2095329762
          37.177967072 -33.01618576 2.0602755547 0 0 0
          32.301261902 -32.044239044 1.8431282043 0.0012452502269 -6.3634405136 -0.00020922183467
          5.503698349 -19.684551239 -2.6965449251e-06 0.77188545465 -11.868155479 -0.24086479843
          9.5597829819 -24.122835159 -0.80845499039 18.76984787 -29.958963394 -0.60437202454
          0.00052300916286 -0.98462831974 0.00037230589078 2.5611152649 -15.603363991 -2.1249763904e-06
          23.091619492 -30.592000961 0.70909100771 0.0010694019729 -4.1790289879 0.00019653209893
          9.5639791489 -24.273178101 -0.40397235751 0.77434545755 -12.027715683 -0.12019245327
          27.599493027 -31.182064056 1.6305178404 0.0012367008021 -6.4068651199 -7.5876204164e-07
          18.772468567 -30.010910034 -3.9668875615e-06 0.00084844289813 -2.2935922146 0.00038112775655
          9.5655012131 -24.323976517 -3.3257067571e-06 40.586765289 -38.15562439 -2.0416998863
          0 0 0 0.77331894636 -12.078430176 -1.6060114376e-06
          40.599182129 -38.315563202 -1.020085454 0 0 0
          5.502808094 -19.633886337 0.30944767594 35.357463837 -37.192153931 -1.8264955282
          0.52245050669 -8.7869377136 0.25041007996 13.039042473 -24.502298355 1.0102424622
          0.0042236032896 -0.83733701706 0.14508961141 2.561139822 -15.552408218 0.21788215637
          35.369480133 -37.35131073 -0.91334491968 0.054164241999 -0.94656920433 0.063389539719
          23.082271576 -30.433996201 1.4190052748 40.603050232 -38.36825943 -4.3983586693e-06
          0.0012445629109 -6.3634405136 0.00020767480601 30.299255371 -36.336227417 -1.6161446571
          -0.024273026735 -2.163611412 0.23174585402 18.769845963 -29.958963394 0.60436403751
          0 0 0 14.664328575 -29.290054321 -1.0037056208
          0.0013972702436 -8.8190917969 -0.00045598173165 0.0010871001286 -4.0208778381 0.00038652712828
          0.0090690227225 -2.2928640842 0.11049759388 30.309810638 -36.493873596 -0.80767631531
          35.373458862 -37.404060364 -4.531563718e-06 9.5639781952 -24.273178101 0.40396568179
          0.0013650662731 -8.9889192581 -0.00023104831052 14.669894218 -29.442913055 -0.50150102377
          0.77434444427 -12.027715683 0.12018921971 0.05533105135 -0.98658376932 -2.5780868995e-08
          3.1384091377 -19.348907471 -0.42764630914 30.313402176 -36.546546936 -4.6390250645e-06
          5.499288559 -19.486307144 0.61892586946 0.018298970535 -2.3346555233 -1.9005568674e-07
          0.0013559908839 -9.0371131897 -1.1476589634e-06 3.1421465874 -19.498477936 -0.21385800838
          14.671930313 -29.494037628 -4.0209383769e-06 2.5577161312 -15.403487206 0.43551170826
          40.599182129 -38.315563202 1.0200766325 25.423372269 -35.590568542 -1.407227397
          1.0453531742 -15.37087822 -0.23189489543 0 0 0
          -0.13224592805 -3.9296514988 0.25684443116 6.4190211296 -23.855976105 -0.61355346441
          -0.11676292866 -4.0725297928 0.12634681165 25.432224274 -35.746631622 -0.70324486494
          35.369480133 -37.35131073 0.91333585978 1.0483385324 -15.529725075 -0.11577600986
          6.4227957726 -24.003810883 -0.30671778321 0.054164048284 -0.94656914473 -0.063389629126
          0.0012682859087 -6.1962604523 0.00041070423322 18.762552261 -29.80311203 1.2095249891
          3.1425390244 -19.549388885 -2.7106639209e-06 0.7718834877 -11.868155479 0.24086149037
          9.5597801208 -24.122835159 0.80844825506 25.435272217 -35.798690796 -4.7236708269e-06
          30.309808731 -36.493873596 0.80766701698 1.0480645895 -15.581104279 -2.1246896722e-06
          0.0090686483309 -2.2928640842 -0.11049801856 -0.10808198899 -4.1129488945 -4.3970945285e-07
          0.0013642520644 -8.9889192581 0.00022872643603 14.669893265 -29.442913055 0.50149291754
          6.4238243103 -24.05424118 -3.3533415262e-06 10.834783554 -28.892026901 -0.80321627855
          0.0014662852045 -11.879611015 -0.00051310646813 10.839169502 -29.041635513 -0.40137645602
          0.0014277416049 -12.048185349 -0.00026027968852 40.586761475 -38.155620575 2.0416910648
          0 0 0 3.1421453953 -19.498477936 0.21385256946
          -0.30333313346 -6.1383156776 0.25739449263 20.745731354 -34.957065582 -1.2003865242
          -0.29850423336 -6.2913622856 0.12786835432 35.357460022 -37.192153931 1.8264863491
          0.0042231846601 -0.83733695745 -0.14508983493 20.752857208 -35.111114502 -0.59983944893
          25.432222366 -35.746631622 0.7032353878 1.0483374596 -15.529725075 0.11577173322
          -0.11676345021 -4.0725297928 -0.12634772062 6.422794342 -24.003810883 0.30671104789
          10.840697289 -29.092060089 -4.0594554775e-06 0.0014174969401 -12.098819733 -1.5980191392e-06
          30.299253464 -36.336227417 1.6161352396 -0.024273794144 -2.163611412 -0.23174639046
          14.664325714 -29.290054321 1.0036975145 -0.29311499 -6.3362369537 -7.5704571145e-07
          0.0013956296025 -8.8190917969 0.00045357827912 20.75535202 -35.16248703 -4.7887892833e-06
          43.966217041 -43.644367218 -2.0246782303 0 0 0
          3.1384065151 -19.348907471 0.42764079571 10.839167595 -29.041635513 0.40136831999
          0 0 0 38.387397766 -42.688747406 -1.8111253977
          1.3366670609 -19.28446579 -0.22428765893 0.0014267999213 -12.048185349 0.00025705821463
          -0.23611465096 -0.6202750802 0.27558773756 3.7443714142 -23.687438965 -0.42054006457
          43.977718353 -43.803039551 -1.0115699768 25.423368454 -35.590568542 1.4072178602
          38.398555756 -42.846508026 -0.90569239855 -0.14980350435 -0.73079055548 0.11927541345
          1.0453510284 -15.37087822 0.2318905592 1.3394845724 -19.441713333 -0.11201579124
          -0.13224698603 -3.9296514988 -0.25684544444 16.294454575 -34.435932159 -0.99679040909
          -0.29850488901 -6.2913622856 -0.12786988914 6.4190182686 -23.855976105 0.61354666948
          -0.51980721951 -8.7877349854 0.24960358441 20.752855301 -35.111114502 0.59982985258
          3.7478871346 -23.836959839 -0.21026271582 -0.52022051811 -8.9460067749 0.12440848351
          16.300043106 -34.5873909 -0.49808308482 32.977874756 -41.838943481 -1.6026616096
          43.981296539 -43.855278015 -5.3336239034e-06 -0.43129816651 -1.9311107397 0.38867536187
          0 0 0 32.987789154 -41.995044708 -0.80096465349
          -0.37377926707 -2.0571143627 0.19482401013 38.402229309 -42.898757935 -5.4594702306e-06
          7.3602609634 -28.602336884 -0.60815310478 1.3395094872 -19.493076324 -2.7083269742e-06
          3.7483911514 -23.887620926 -3.3653172977e-06 0.0014662105823 -15.366207123 -0.00057903851848
          -0.14756974578 -0.76547324657 -3.9815677866e-08 7.3639678955 -28.750007629 -0.30400151014
          16.302017212 -34.638038635 -4.8368287935e-06 0.0014237283031 -15.531837463 -0.00029425910907
          -0.51761168242 -8.9947404861 -1.1373267625e-06 10.834780693 -28.892026901 0.80320805311
          32.991134644 -42.04719162 -5.5593554862e-06 0.001464389381 -11.879611015 0.00050980760716
          -0.35567715764 -2.1036467552 -2.0042892857e-07 27.750055313 -41.096485138 -1.3959052563
          43.977718353 -43.803039551 1.0115593672 7.3649930954 -28.800144196 -4.083546628e-06
          -0.70402240753 -3.7497489452 0.43586918712 -0.30333447456 -6.1383156776 -0.25739613175
          0.0014126126189 -15.583316803 -2.11281872e-06 20.745727539 -34.957065582 1.2003768682
          0 0 0 27.758514404 -41.250915527 -0.69760894775
          -0.67550170422 -3.8817009926 0.21935731173 38.398555756 -42.846508026 0.90568143129
          1.3394833803 -19.441713333 0.11201034486 3.747885704 -23.836959839 0.21025596559
          -0.14980366826 -0.73079055548 -0.11927552521 16.300041199 -34.5873909 0.49807339907
          -0.52022129297 -8.9460067749 -0.12441077828 32.987785339 -41.995044708 0.80095350742
          27.761392593 -41.302444458 -5.6361341194e-06 12.121237755 -34.024868011 -0.79768401384
          -0.76911389828 -11.86920166 0.23995320499 -0.66173565388 -3.925835371 -4.4028067236e-07
          -0.3737795949 -2.0571143627 -0.19482444227 -0.77164399624 -12.028868675 0.11973024905
          7.363966465 -28.750007629 0.3039933145 12.125628471 -34.173618317 -0.39863306284
          0.0014226562344 -15.531837463 0.00029000872746 22.722000122 -40.462364197 -1.1913089752
          43.966213226 -43.644367218 2.0246675014 0 0 0
          -1.0678722858 -6.0225710869 0.44929894805 22.7289505 -40.614845276 -0.59532779455
          38.387393951 -42.688747406 1.8111144304 -1.0567669868 -6.1608605385 0.22585549951
          1.3366645575 -19.28446579 0.2242821455 12.127113342 -34.223674774 -4.8698866522e-06
          -0.23611502349 -0.6202750206 -0.27558797598 3.7443687916 -23.687438965 0.42053323984