<?xml version="1.0"?>
<VTKFile type="UnstructuredGrid" version="0.1" byte_order="LittleEndian" header_type="UInt32" compressor="vtkZLibDataCompressor">
  <UnstructuredGrid>
    <Piece NumberOfPoints="6405" NumberOfCells="4800">
      <PointData>
        <DataArray type="Float32" Name="DISPLACEMENT" NumberOfComponents="3" ComponentName0="X-DISPLACEMENT" ComponentName1="Y-DISPLACEMENT" ComponentName2="Z-DISPLACEMENT" format="ascii" RangeMin="0" RangeMax="267.80000188">
          0 0 0 0 0 0
          2.0709226131 -1.27178514 -0.95809811354 0 0 0
          1.3328813314 -0.75482863188 -0.74129903316 0 0 0
          1.8919337988 -1.403439045 -0.38091543317 1.1601315737 -0.8629180789 -0.30203872919
          0 0 0 3.7139599323 -2.3325884342 -0.98085480928
          0 0 0 3.6623330116 -2.4880042076 -0.50625795126
          2.6770188808 -1.9161822796 -0.81531989574 0 0 0
          0 0 0 1.8989120722 -1.448138833 -2.7932162538e-07
          0.97317224741 -0.51857697964 -0.56930065155 1.1555973291 -0.88452357054 -1.3615334638e-07
          2.621966362 -2.0404317379 -0.4162992239 0.83915925026 -0.61538809538 -0.23110890388
          3.6214663982 -2.5317804813 -6.4915974463e-07 1.9421901703 -1.5671396255 -0.63679307699
          0 0 0 2.5865933895 -2.0814034939 -3.801993671e-07
          1.8852465153 -1.6842154264 -0.32656919956 0 0 0
          5.2068343163 -3.6959855556 -0.91800218821 0 0 0
          0.83443391323 -0.63378870487 3.1390879229e-08 0 0 0
          0 0 0 1.8919337988 -1.4034392834 0.38091486692
          3.9404351711 -3.2947926521 -0.7758231163 5.2234559059 -3.8091373444 -0.46811035275
          0.68502390385 -0.34157907963 -0.40467959642 1.1601314545 -0.86291837692 0.30203843117
          3.9541120529 -3.4024076462 -0.39531105757 0.58814543486 -0.44473147392 -0.17025960982
          1.8529824018 -1.7169468403 -7.6891673473e-08 3.6623327732 -2.4880046844 0.50625658035
          0 0 0 0 0 0
          1.3587540388 -1.340703249 -0.44379723072 2.9405300617 -2.96889925 -0.63116788864
          5.2102828026 -3.850164175 -1.1146216821e-06 2.6219658852 -2.0404324532 0.41629841924
          2.9317145348 -3.0727963448 -0.32032442093 0.83915913105 -0.61538845301 0.23110893369
          3.9449648857 -3.4381065369 -7.2216977287e-07 1.3055599928 -1.4594097137 -0.22607347369
          0.579241395 -0.46004644036 2.85320084e-07 0 0 0
          6.5881137848 -5.245434761 -0.8202663064 0 0 0
          5.1339068413 -4.8832798004 -0.71587091684 1.8852460384 -1.6842161417 0.32656902075
          6.6249260902 -5.3271708488 -0.41533213854 2.0709221363 -1.2717856169 0.95809745789
          0 0 0 0 0 0
          1.277897954 -1.4892479181 2.9511008393e-07 2.919939518 -3.1026172638 -3.0486950209e-07
          0.40616181493 -0.32191601396 -0.20100393891 5.1658658981 -4.9647436142 -0.36081522703
          1.3328808546 -0.75482922792 0.74129867554 2.0445280075 -2.73487854 -0.46848496795
          0 0 0 5.2234554291 -3.8091380596 0.46810808778
          0.38545560837 -0.45467117429 -0.1006795913 2.0050590038 -2.8344619274 -0.23928672075
          3.9541113377 -3.4024085999 0.39530956745 0.58814507723 -0.44473192096 0.17026013136
          3.9047234058 -4.5995903015 -0.61083519459 0.56392860413 -1.2217541933 -0.21296966076
          6.6254339218 -5.3560271263 -1.6546724737e-06 3.7139592171 -2.3325893879 0.98085337877
          0 0 0 0 0 0
          3.9146549702 -4.677690506 -0.30608940125 2.6770179272 -1.9161834717 0.81531900167
          5.1703739166 -4.9928965569 -1.1577119494e-06 0.51309502125 -1.3520066738 -0.12401922047
          0.97317194939 -0.5185777545 0.56930059195 0.37752473354 -0.48631393909 7.1111429634e-07
          1.9873217344 -2.859470129 1.6619223686e-07 2.9317140579 -3.0727972984 0.32032376528
          1.305559516 -1.4594105482 0.22607405484 3.9153161049 -4.702776432 -6.4281562118e-07
          1.942189455 -1.5671410561 0.63679283857 0.49531173706 -1.3813198805 7.3299520409e-07
          2.7657940388 -4.4264330864 -0.50935214758 6.6249256134 -5.3271718025 0.41532880068
          5.2068328857 -3.6959869862 0.91799980402 0 0 0
          7.848004818 -6.9272947311 -0.74083423615 0 0 0
          0 0 0 0.88518327475 -2.5701239109 -0.32610851526
          2.7434577942 -4.4848546982 -0.25573328137 7.8827624321 -6.9865150452 -0.37267535925
          6.245426178 -6.5969605446 -0.66422021389 5.1658649445 -4.9647445679 0.36081287265
          -0.11267764866 -0.23146489263 0.043773390353 0 0 0
          3.940433979 -3.2947943211 0.77582156658 0.68502348661 -0.3415800333 0.40468001366
          0.8266274333 -2.6678264141 -0.16708980501 0.38545510173 -0.45467168093 0.1006809622
          -0.16568526626 -0.36843723059 0.018875082955 2.005058527 -2.8344631195 0.23928704858
          6.2769179344 -6.6584200859 -0.33231750131 3.9146542549 -4.6776914597 0.30608808994
          2.7342414856 -4.5006690025 -7.5492579299e-08 7.8885855675 -7.0078573227 -2.2667757094e-06
          0.28767964244 -1.5426256657 -0.3077455759 0.5130944252 -1.3520075083 0.12402068824
          0 0 0 4.819685936 -6.3435044289 -0.58719110489
          1.3587533236 -1.3407049179 0.44379776716 2.940529108 -2.9689011574 0.63116723299
          0.81458479166 -2.6967489719 6.8892262561e-07 6.2851858139 -6.6799020767 -1.6845094706e-06
          -0.17318589985 -0.39546385407 3.9198289414e-07 0.19647809863 -1.5264006853 -0.092046819627
          4.8369178772 -6.4022073746 -0.29401704669 6.5881123543 -5.2454366684 0.82026284933
          0 0 0 1.5546145439 -4.3015580177 -0.46973264217
          5.1339049339 -4.8832821846 0.71586847305 0.24386225641 -1.5712690353 1.619403065e-06
          1.4833960533 -4.33679533 -0.20894524455 4.8407225609 -6.4228668213 -1.0875933185e-06
          0.40616118908 -0.32191720605 0.20100522041 2.7434570789 -4.4848561287 0.25573310256
          3.4904303551 -6.1775994301 -0.52070552111 7.8827614784 -6.9865164757 0.37267079949
          0.51035135984 -2.7362172604 -0.43252155185 2.0445270538 -2.7348806858 0.46848523617
          0 0 0 0.82662671804 -2.6678276062 0.16709119081
          3.4974679947 -6.2275767326 -0.26034557819 -0.16568543017 -0.36843773723 -0.018874328583
          0.52450042963 -2.7802293301 -0.1473967582 6.2769165039 -6.6584210396 0.33231410384
          3.9047217369 -4.5995926857 0.61083382368 0.56392771006 -1.2217559814 0.21297110617
          9.0107421875 -8.6885585785 -0.68741065264 0 0 0
          1.431973815 -4.3431010246 5.9387383544e-07 7.287103653 -8.3782749176 -0.62400829792
          9.0371608734 -8.7371873856 -0.34464636445 0 0 0
          0.039004866034 -0.63123255968 -0.12701283395 7.3121418953 -8.429444313 -0.31117832661
          3.5042469501 -6.2468757629 -4.3659238713e-07 -0.0040942439809 -0.65535306931 -0.05545989424
          0.19647666812 -1.5264014006 0.092049911618 0.56872940063 -2.8782269955 1.5699016558e-06
          4.8369164467 -6.4022088051 0.29401487112 5.6881566048 -8.1403865814 -0.55762410164
          -0.16643232107 -1.7490766048 -0.30808585882 9.0441989899 -8.7545318604 -2.9576133329e-06
          0 0 0 -0.19898587465 -1.6990107298 -0.17285837233
          5.7088470459 -8.190372467 -0.27864354849 7.3194317818 -8.4470529556 -2.305249609e-06
          0.02765490301 -0.6728464365 1.4793502487e-05 2.7657928467 -4.4264359474 0.50935196877
          2.3200201988 -6.0491347313 -0.47454768419 7.8480024338 -6.9272971153 0.74082952738
          0 0 0 0.94671350718 -4.4099493027 -0.35767301917
          1.4833954573 -4.3367967606 0.20894642174 0.88518214226 -2.5701262951 0.32610988617
          6.2454242706 -6.5969634056 0.66421675682 -0.1126774922 -0.23146535456 -0.04377296567
          0.92583090067 -4.4803891182 -0.17537286878 2.2504045963 -6.0780873299 -0.23957240582
          3.497467041 -6.2275781631 0.26034468412 0.52449893951 -2.7802300453 0.14739979804
          5.7145619392 -8.2078790665 -1.6365502233e-06 0.030715530738 -1.6702625751 3.660164657e-05
          4.2188363075 -7.9824748039 -0.50081312656 -0.013442676514 -2.9876954556 -0.38144820929
          0.28767806292 -1.5426276922 0.30774837732 9.0371589661 -8.7371892929 0.34464040399
          4.8196840286 -6.3435072899 0.58718883991 0 0 0
          2.1570272446 -6.0652599335 3.223489955e-07 0.88123434782 -4.5020437241 1.5470426433e-06
          4.2297263145 -8.0332069397 -0.25198528171 7.3121404648 -8.4294462204 0.31117367744
          -0.016741082072 -3.0474877357 -0.17618088424 -0.0041018757038 -0.65536469221 0.055478733033
          1.5546132326 -4.3015608788 0.46973380446 4.2258424759 -8.0564308167 -9.3339116347e-07
          5.7088460922 -8.1903743744 0.27864024043 -0.19900169969 -1.6989095211 0.17296245694
          -0.021617297083 -3.0865252018 2.048240458e-05 10.115778923 -10.513622284 -0.6579182744
          0 0 0 10.13301754 -10.56075573 -0.3288590014
          3.4904284477 -6.1776027679 0.52070456743 8.2810077667 -10.210662842 -0.59457594156
          0.51034921408 -2.7362194061 0.43252456188 1.1009175777 -5.9709620476 -0.34974202514
          0.0033567277715 -0.8285318017 -0.081620313227 0.92582964897 -4.4803905487 0.17537590861
          2.2504036427 -6.0780892372 0.23957304657 0 0 0
          8.2988510132 -10.26006031 -0.29609644413 1.0923306942 -5.9910101891 -0.24197642505
          -0.017994867638 -0.85668760538 -0.040833886713 2.8954651356 -7.8797807693 -0.44521543384
          0.25409016013 -4.6698117256 -0.40450182557 9.0107402802 -8.6885614395 0.68740457296
          0 0 0 7.2871012688 -8.3782777786 0.62400352955
          10.139093399 -10.576951027 -3.744608648e-06 0.21272738278 -4.6622238159 -0.20508918166
          2.9179525375 -7.9404067993 -0.24270561337 0.039027106017 -0.6312174201 0.12703172863
          6.5166311264 -9.9739589691 -0.52735066414 -0.0043685492128 -1.8515992165 -0.12022636831
          0 0 0 4.2297253609 -8.0332078934 0.25198340416
          -0.016622133553 -3.0475413799 0.17637814581 8.3047180176 -10.27633667 -3.0315354707e-06
          1.0677411556 -5.9341654778 1.1349879969e-06 6.5331397057 -10.021913528 -0.26128020883
          -0.023892782629 -1.9123239517 -0.074772983789 -0.010614085011 -0.84505915642 1.3669046893e-05
          5.6881542206 -8.1403894424 0.55762070417 -0.16639912128 -1.7492192984 0.30819126964
          2.9322328568 -7.9785714149 -1.6863766916e-07 0.26044657826 -4.6881628036 5.8525329223e-06
          2.3200185299 -6.0491380692 0.47454828024 6.5356349945 -10.035799026 -2.2912433906e-06
          -0.058640103787 -1.9190158844 2.1176949303e-05 0.94671142101 -4.4099521637 0.3576759398
          10.133015633 -10.560757637 0.32885149121 4.8712406158 -9.853805542 -0.45651400089
          0 0 0 -0.026557508856 -3.1018345356 -0.14682599902
          4.8849115372 -9.8926553726 -0.22585459054 8.2988491058 -10.260062218 0.29609033465
          -0.017988597974 -0.85668361187 0.040861431509 1.0923293829 -5.9910120964 0.24197870493
          -0.049283046275 -3.1925683022 -0.081522971392 4.2188339233 -7.9824786186 0.50081121922
          1.4009990692 -7.7622461319 -0.39814889431 2.9179515839 -7.9404091835 0.24270531535
          -0.013563562185 -2.9874110222 0.3815818131 0.21288026869 -4.6623754501 0.20510293543
          0.52537298203 -6.3244400024 -0.52703613043 1.4892282486 -7.8334431648 -0.2056311667
          4.8815088272 -9.9035768509 -1.5139363541e-06 6.5331377983 -10.021915436 0.26127558947
          -0.023882655427 -1.9123036861 0.074837438762 0.54090386629 -6.2523283958 -0.22437939048
          -0.049097076058 -3.2207927704 3.7584199163e-05 11.196687698 -12.416836739 -0.64511245489
          0 0 0 -0.011101758108 -0.89846026897 -0.015405835584
          1.632606864 -7.9159989357 6.5834467478e-07 3.4030973911 -9.8557682037 -0.41607818007
          9.2500143051 -12.113451004 -0.57637584209 10.115775108 -10.513624191 0.6579105854
          0 0 0 0 0 0
          0.60419404507 -6.2564287186 2.7926182611e-06 -0.0018258241471 -4.6157922745 -0.14300274849
          11.206283569 -12.466739655 -0.3217356205 3.4283201694 -9.8717241287 -0.19997285306
          9.2600221634 -12.165218353 -0.28697174788 8.2810049057 -10.210665703 0.59456968307
          -0.021645281464 -0.93295234442 -0.0084816822782 1.100915432 -5.9709653854 0.34974443913
          0.0033650689293 -0.82852947712 0.081650517881 -0.038409769535 -4.7142491341 -0.12174610049
          4.8849096298 -9.89265728 0.2258515209 -0.049293115735 -3.1925632954 0.08155143261
          7.3279747963 -11.861850739 -0.50188028812 2.8954632282 -7.879784584 0.44521516562
          0.25437328219 -4.6700925827 0.40451014042 0 0 0
          -0.055347785354 -1.9574791193 -0.028339155018 11.210612297 -12.483211517 -4.6579893933e-06
          -0.025841196999 -0.94076263905 8.0859972513e-06 3.4397330284 -9.8758611679 -7.4229131997e-07
          7.3405060768 -11.911211014 -0.24775630236 6.5166277885 -9.9739627838 0.52734589577
          9.2636985779 -12.181640625 -3.8864591261e-06 -0.0043422025628 -1.851582408 0.12029375881
          -0.02792718634 -4.7217707634 3.6039968109e-05 -0.067577175796 -2.0143451691 -0.012778582983
          1.4892275333 -7.833445549 0.20563259721 0.54090481997 -6.25233078 0.22438462079
          0.85290527344 -8.0512914658 -0.51615929604 7.3444123268 -11.923656464 -3.0686026093e-06
          -0.069110050797 -2.0321412086 1.5346893633e-05 0.89994972944 -8.0635700226 -0.18722361326
          5.4370012283 -11.720523834 -0.4238461256 0 0 0
          -0.10101234168 -3.2160487175 -0.030244393274 11.206281662 -12.466740608 0.32172623277
          -0.021643435583 -0.93294745684 0.0084988297895 3.4283189774 -9.8717260361 0.19997140765
          5.4346561432 -11.752811432 -0.2094822675 4.8712377548 -9.8538093567 0.45651081204
          9.260020256 -12.165220261 0.28696390986 2.115183115 -9.8872032166 -0.44066026807
          -0.12983703613 -6.57721138 -0.49891102314 -0.026527838781 -3.1017589569 0.14688643813
          -0.11268335581 -3.2910609245 -0.015532981604 -0.038410816342 -4.7143130302 0.12180412561
          2.1266121864 -9.886797905 -0.18611937761 -0.07438261807 -6.5619239807 -0.27718144655
          0.89961612225 -8.1205358505 1.5685432118e-06 1.4009975195 -7.7622504234 0.39815074205
          7.3405041695 -11.911212921 0.24775010347 0.52537322044 -6.3244438171 0.52704012394
          5.4204063416 -11.753569603 -2.2216931939e-06 -0.067576095462 -2.0143387318 0.012807491235
          -0.11920800805 -3.314170599 1.6033409338e-05 2.1287336349 -9.8788337708 2.1335191036e-07
          -0.04068942368 -6.5173726082 3.5308412407e-06 -0.15188881755 -4.7223834991 -0.057297945023
          3.8524653912 -11.738928795 -0.3742467165 11.196683884 -12.4168396 0.64510297775
          0 0 0 0.89994895458 -8.0635719299 0.18722693622
          -0.011090349406 -0.89844942093 0.015424801968 -0.15817944705 -4.8027076721 -0.030621880665
          3.4030947685 -9.8557720184 0.41607680917 9.2500104904 -12.113453865 0.57636785507
          3.8523373604 -11.757561684 -0.18122504652 12.270435333 -14.422865868 -0.6407443285
          0 0 0 -0.0018859374104 -4.6158518791 0.14301386476
          12.274454117 -14.474936485 -0.31943103671 -0.055245149881 -0.93406116962 0.03118361719
          10.20872879 -14.118264198 -0.56933528185 5.4346542358 -11.752813339 0.20947778225
          0 0 0 -0.11268626153 -3.2910573483 0.015570168383
          10.21282196 -14.171565056 -0.28372016549 -0.048182565719 -0.96434170008 0.013723276556
          2.1266121864 -9.886800766 0.18611983955 -0.0743797943 -6.5619292259 0.27718940377
          7.3279709816 -11.861854553 0.50187391043 -0.15760435164 -4.8288879395 1.8510643713e-05
          3.8354058266 -11.766627312 -1.3837346842e-06 -0.055338475853 -1.9574533701 0.028369145468
          1.184895277 -9.9952774048 -0.35299599171 -0.1142789647 -2.0137608051 0.039065353572
          8.1497850418 -13.851625443 -0.49263176322 0.1626240164 -8.3950328827 -0.46459913254
          12.276591301 -14.491962433 -5.7317929532e-06 0 0 0
          1.203600049 -10.022845268 -0.19880899787 10.214994431 -14.188484192 -4.9011987358e-06
          -0.048135396093 -0.97288680077 4.4874386731e-06 8.1537103653 -13.905468941 -0.24481153488
          -0.1101378724 -2.0587685108 0.021225363016 0.18885207176 -8.4116783142 -0.19362084568
          0.85290360451 -8.0512952805 0.5161626935 1.2151747942 -10.020401001 1.297284939e-06
          -0.10374563187 -6.4049592018 -0.03662237525 -0.15818369389 -4.8027181625 0.03065267764
          2.6549465656 -11.763845444 -0.37603023648 8.1562280655 -13.921657562 -4.0079826249e-06
          5.4369974136 -11.720527649 0.42384147644 3.8523359299 -11.757563591 0.1812222898
          0.21616990864 -8.3979578018 9.3766384452e-06 -0.10993328691 -2.0742931366 8.7068237917e-06
          -0.1010254547 -3.2160403728 0.030274236575 12.274452209 -14.474938393 0.31941953301
          6.0415358543 -13.636931419 -0.41421335936 -0.11972762644 -6.5232915878 -0.053873553872
          -0.17641142011 -3.2741229534 0.045089684427 2.6597213745 -11.772655487 -0.18831673265
          2.1151821613 -9.8872079849 0.4406607151 -0.1298379302 -6.5772175789 0.49891811609
          0 0 0 -0.17313487828 -3.3293554783 0.024982921779
          10.212819099 -14.17156601 0.28371030092 -0.048182055354 -0.96433806419 -0.013714504428
          6.0446338654 -13.680402756 -0.20423421264 -0.119295232 -6.526863575 1.1135624845e-05
          2.6550703049 -11.781351089 -3.6044247054e-07 1.2035990953 -10.022847176 0.19881148636
          6.0441946983 -13.68738842 -3.0851965676e-06 -0.17289832234 -3.349370718 1.1826759874e-05
          8.1537075043 -13.905470848 0.24480345845 -0.11013799161 -2.058763504 -0.021207788959
          0.18885135651 -8.4116811752 0.19362410903 -0.15189340711 -4.7223954201 0.057322207838
          3.8524625301 -11.738933563 0.37424400449 4.2223219872 -13.593383789 -0.344101578
          12.270430565 -14.422868729 0.64073264599 0 0 0
          -0.21905359626 -4.7248616219 0.058723062277 -0.055239845067 -0.93405169249 -0.031173467636
          10.208724022 -14.118268013 0.56932526827 -0.11972700804 -6.5232977867 0.053893052042
          2.6597206593 -11.772657394 0.18831597269 4.1832838058 -13.575008392 -0.17707587779
          0.50032889843 -10.280625343 -0.43493035436 -0.21798594296 -4.793241024 0.030043762177
          -0.17313671112 -3.3293533325 -0.024960702285 6.0446310043 -13.680404663 0.20422798395
          0.50083339214 -10.258395195 -0.1936980933 1.4506577253 -11.708959579 -0.38097727299
          -0.036791209131 -8.1774721146 -0.05916101113 13.339179993 -16.545639038 -0.63884198666
          0 0 0 11.163859367 -16.242141724 -0.56889510155
          1.1848933697 -9.9952821732 0.35299819708 -0.11427687109 -2.0137491226 -0.039047546685
          8.1497802734 -13.851629257 0.49262350798 -0.042710643262 -8.2988500595 -0.074162237346
          1.4529101849 -11.714839935 -0.18226203322 0.16262292862 -8.3950366974 0.4646037817
          13.340415001 -16.597381592 -0.31880012155 0 0 0
          -0.21904438734 -4.8157691956 1.1616923985e-05 4.123269558 -13.544436455 -2.0654090349e-06
          -0.093357652426 -0.9372779727 0.069981336594 11.164333344 -16.294471741 -0.28410449624
          -0.072942130268 -0.9634976387 0.029294108972 0.53480309248 -10.288884163 1.7535153347e-06
          8.9852371216 -15.969436646 -0.49824842811 -0.036498900503 -8.2979593277 3.9219594328e-06
          1.4600239992 -11.724246025 4.8841496891e-07 13.340950012 -16.614391327 -6.995188869e-06
          0 0 0 -0.1661055088 -2.0109424591 0.091744795442
          8.983549118 -16.02338028 -0.24833922088 11.165021896 -16.311779022 -6.1034297687e-06
          -0.10375235975 -6.404964447 0.03664072603 2.6549444199 -11.763849258 0.37602931261
          -0.071735031903 -0.97104614973 2.5054132493e-06 -0.15112049878 -2.0488989353 0.04741935432
          6.041531086 -13.636935234 0.41420698166 -0.17641268671 -3.2741146088 -0.045067191124
          -0.24628965557 -6.3462257385 0.070955634117 3.0884478092 -13.644477844 -0.38907292485
          -0.21798765659 -4.7932419777 -0.03002069518 4.1832823753 -13.575011253 0.17707172036
          -0.24525368214 -6.4250035286 0.037910155952 3.0787382126 -13.62301445 -0.17779703438
          0.5008341074 -10.25839901 0.19370168447 8.984539032 -16.040969849 -5.1405140766e-06
          -0.14580982924 -2.0620970726 5.3867806855e-06 6.7724046707 -15.713160515 -0.42102304101
          -0.042710375041 -8.2988510132 0.074172914028 1.4529095888 -11.714842796 0.18226312101
          13.34041214 -16.597383499 0.31878605485 0 0 0
          -0.22688652575 -3.2523605824 0.10763918608 6.7745656967 -15.769865036 -0.21080581844
          11.164330482 -16.294473648 0.28409224749 -0.21666783094 -3.2979061604 0.055724151433
          -0.24501214921 -6.455552578 9.188288459e-06 3.0646426678 -13.608362198 -1.0183673567e-06
          -0.072941809893 -0.96349519491 -0.029289102182 8.983546257 -16.023382187 0.24832887948
          6.7808361053 -15.789319992 -4.0918166633e-06 -0.2133629173 -3.3144123554 7.5075836321e-06
          4.2223191261 -13.593388557 0.34409734607 0.79318785667 -11.941051483 -0.4455960393
          -0.15112040937 -2.0488955975 -0.047408439219 -0.21905866265 -4.7248601913 -0.058702301234
          0.0711953789 -10.004760742 -0.10431661457 0.81744754314 -11.93970871 -0.18400259316
          0.50032806396 -10.280630112 0.43493431807 0.05646757409 -10.105774879 -0.11643678695
          -0.24525466561 -6.4250054359 -0.037892103195 3.0787372589 -13.623017311 0.17779506743
          1.450655818 -11.708964348 0.38097858429 -0.036794673651 -8.1774768829 0.059170227498
          -0.28163653612 -4.6786236763 0.12249845266 4.5753765106 -15.474294662 -0.34143832326
          13.339175224 -16.545642853 0.63882774115 0 0 0
          11.163853645 -16.242143631 0.56888264418 -0.27315461636 -4.7281441689 0.063819043338
          0.80811297894 -11.955568314 8.3227746472e-07 -0.27255675197 -8.1035833359 0.069559827447
          2.0697760582 -13.698194504 -0.40583962202 4.5661592484 -15.502148628 -0.18248666823
          -0.093354560435 -0.93727248907 -0.06997525692 0.1138073355 -10.15585041 3.4760103063e-06
          6.7745623589 -15.769866943 0.21079753339 -0.21666832268 -3.2979037762 -0.055709034204
          2.0324308872 -13.671694756 -0.18087135255 -0.27198621631 -8.1922187805 0.036692801863
          8.9852323532 -15.96944046 0.49823790789 -0.27172523737 -4.7477793694 8.2819688032e-06
          4.5422797203 -15.512451172 -2.8043768907e-06 -0.1661028266 -2.0109348297 -0.09173348546
          1.9823038578 -13.64081955 -1.7556601506e-07 14.400974274 -18.784053802 -0.63630986214
          0 0 0 -0.27266278863 -8.222366333 6.0256720644e-06
          14.401351929 -18.833648682 -0.31797415018 0 0 0
          0.81744754314 -11.939711571 0.18400478363 12.116196632 -18.482629776 -0.57020384073
          -0.24629302323 -6.3462276459 -0.070939034224 3.0884459019 -13.644482613 0.3890709579
          -0.12621034682 -0.90824323893 0.10597381741 0.056467395276 -10.10577774 0.11644013971
          12.115753174 -18.532320023 -0.28516206145 -0.093750864267 -0.93289983273 0.0444258973
          6.7723989487 -15.71316433 0.42101448774 14.400989532 -18.850141525 -8.4671528384e-06
          -0.27315551043 -4.7281432152 -0.063802778721 9.8339548111 -18.209636688 -0.5057118535
          -0.20659843087 -1.9473062754 0.14130857587 4.5661559105 -15.502149582 0.18248103559
          0 0 0 3.6246023178 -15.521782875 -0.36022847891
          -0.33521226048 -6.2784004211 0.1385230422 -0.22688634694 -3.2523541451 -0.1076245755
          -0.18262273073 -1.9839243889 0.072067506611 9.83066082 -18.260385513 -0.25271245837
          12.115682602 -18.549142838 -7.511498552e-06 2.0324311256 -13.671697617 0.18087114394
          -0.32819902897 -6.3310666084 0.071734048426 3.5808522701 -15.494506836 -0.16248480976
          -0.27198621631 -8.1922197342 -0.036681178957 -0.090942800045 -0.93910747766 1.4865037201e-06
          0.15973633528 -12.247709274 -0.40527203679 9.8303174973 -18.277814865 -6.4755226958e-06
          0.79318714142 -11.941056252 0.44559812546 -0.17387872934 -1.9961705208 3.3840556171e-06
          -0.326828897 -6.3532037735 7.5130974437e-06 0.20876988769 -12.291537285 -0.13585202396
          3.5072493553 -15.463547707 -1.4796851247e-06 0.071196183562 -10.004766464 0.10432174802
          14.401349068 -18.833650589 0.31795713305 7.535118103 -17.957252502 -0.43848747015
          -0.46626901627 -10.036780357 0.10559012741 0 0 0
          -0.26058903337 -3.1553320885 0.16170297563 1.1108916998 -13.737354279 -0.34769299626
          -0.2464953959 -3.1986756325 0.081200294197 7.5320820808 -18.012395859 -0.2179774642
          12.115750313 -18.53232193 0.28514698148 -0.43975836039 -10.122638702 -0.044641114771
          1.0909302235 -13.738493919 -0.17055891454 -0.093750491738 -0.932898283 -0.044422857463
          -0.28163796663 -4.6786198616 -0.12248280644 4.5753712654 -15.474298477 0.34143197536
          0.21425846219 -12.247479439 -9.6724079413e-06 -0.27255925536 -8.1035842896 -0.06954792887
          2.0697753429 -13.698198318 0.40583953261 7.5342135429 -18.032157898 -5.3713429224e-06
          9.8306570053 -18.260387421 0.25269943476 -0.32164156437 -10.161308289 2.1256216769e-06
          -0.1826222688 -1.9839221239 -0.072060592473 -0.24054899812 -3.2144145966 5.0131407079e-06
          -0.32819983363 -6.3310666084 -0.071719244123 3.5808515549 -15.494508743 0.16248191893
          1.0525130033 -13.716380119 5.3641684872e-07 2.5275831223 -15.487603188 -0.36303079128
          -0.40381246805 -8.0419816971 0.15299662948 2.4983444214 -15.454375267 -0.1829303652
          -0.39616289735 -8.0976171494 0.070170417428 14.400967598 -18.784057617 0.636292696
          0 0 0 0.2087713927 -12.291540146 0.13585501909
          -0.30397209525 -4.563832283 0.17437662184 5.2021312714 -17.667922974 -0.34026405215
          -0.29524931312 -4.6077432632 0.085608400404 12.116189957 -18.482633591 0.57018858194
          -0.12620800734 -0.90823984146 -0.10596998781 5.202229023 -17.744319916 -0.18109643459
          7.532078743 -18.012397766 0.21796664596 -0.43975496292 -10.122639656 0.044647242874
          -0.24649523199 -3.1986734867 -0.081190302968 1.090929985 -13.738495827 0.17055998743
          2.4646437168 -15.414194107 -4.4185713932e-07 -0.38395366073 -8.1226158142 5.9364533627e-06
          9.8339490891 -18.209640503 0.50569862127 -0.20659604669 -1.9473013878 -0.1413012892
          3.6246006489 -15.521785736 0.36022594571 -0.28974977136 -4.6275105476 5.8574651121e-06
          -0.33521470428 -6.2783985138 -0.1385088712 5.2068786621 -17.790790558 -4.1601515477e-06
          15.454652786 -21.129522324 -0.63302439451 0 0 0
          0.15973712504 -12.247713089 0.40527480841 2.4983444214 -15.454377174 0.18292953074
          0 0 0 13.067214966 -20.830015182 -0.57051622868
          -1.1378793716 -12.31746769 -0.19723138213 -0.39616346359 -8.0976171494 -0.070158496499
          -0.14803087711 -0.84339404106 0.14526998997 0.479919523 -13.977468491 -0.36276638508
          15.455135345 -21.176645279 -0.31659090519 7.5351119041 -17.957256317 0.4384765029
          13.066944122 -20.877012253 -0.28543022275 -0.10484140366 -0.86605590582 0.061809848994
          -0.46626657248 -10.036783218 -0.10558181256 -1.0894873142 -12.36540699 -0.24470134079
          -0.26058763266 -3.1553270817 -0.16169290245 4.0388412476 -17.279087067 -0.33865648508
          -0.29524946213 -4.6077418327 -0.085596747696 1.1108914614 -13.73735714 0.34769448638
          -0.36552032828 -6.1643357277 0.18175123632 5.2022247314 -17.744321823 0.18108804524
          0.50097185373 -14.013113976 -0.10298592597 -0.35614198446 -6.2064957619 0.090272240341
          3.956297636 -17.212373734 -0.18892331421 10.684808731 -20.559127808 -0.50984597206
          15.454698563 -21.192396164 -1.0161678802e-05 -0.23200771213 -1.8298534155 0.19418403506
          0 0 0 10.682462692 -20.606880188 -0.25480005145
          -0.19957324862 -1.8640527725 0.10084632039 13.066495895 -20.892900467 -9.138252608e-06
          1.5309070349 -15.491446495 -0.36921989918 -0.058079209179 -12.17103672 1.6256701656e-06
          0.45535796881 -13.987482071 -4.5953879635e-07 -0.4688013494 -10.012965202 0.10994554311
          -0.10325788707 -0.86848396063 8.920185337e-07 1.4339103699 -15.45044899 -0.15750095248
          3.7986853123 -17.113164902 -1.5448965769e-06 -0.46226030588 -10.081562996 0.055176354945
          -0.35338166356 -6.2258200645 5.9329508986e-06 2.5275831223 -15.487607002 0.36303028464
          10.681450844 -20.623462677 -8.022028851e-06 -0.40381485224 -8.0419816971 -0.15298520029
          -0.18517526984 -1.8730763197 2.1451223802e-06 8.3004655838 -20.313341141 -0.44774907827
          15.455132484 -21.176647186 0.3165705204 1.3117736578 -15.375102997 4.4541533839e-07
          -0.2875700891 -2.9760224819 0.21655546129 -0.30397200584 -4.5638284683 -0.17436520755
          -0.39634945989 -10.051939964 4.8197161959e-06 5.2021241188 -17.667926788 0.34025523067
          0 0 0 8.2945299149 -20.363456726 -0.22314351797
          -0.26484587789 -3.0254690647 0.11094544828 13.066940308 -20.87701416 0.28541189432
          -1.0894724131 -12.365414619 0.24470277131 0.50097262859 -14.013115883 0.10298783332
          -0.10484101623 -0.86605483294 -0.061807990074 3.9562978745 -17.212375641 0.18892025948
          -0.3561424017 -6.2064948082 -0.090260483325 10.682459831 -20.606882095 0.25478392839
          8.2911510468 -20.381490707 -6.8151221058e-06 3.0377948284 -17.252979279 -0.40031972528
          -0.44499999285 -7.9059705734 0.19963334501 -0.25625473261 -3.0472075939 3.3256753795e-06
          -0.19957265258 -1.8640512228 -0.1008418873 -0.43062105775 -7.9471311569 0.098951376975
          1.4339114428 -15.450450897 0.15750190616 2.9951968193 -17.238119125 -0.15252368152
          -0.46226090193 -10.081562996 -0.055167306215 5.9207491875 -20.071409225 -0.37490642071
          15.454646111 -21.129526138 0.63300383091 0 0 0