<?xml version="1.0"?>
<VTKFile type="UnstructuredGrid" version="0.1" byte_order="LittleEndian" header_type="UInt32" compressor="vtkZLibDataCompressor">
  <UnstructuredGrid>
    <Piece NumberOfPoints="6405" NumberOfCells="4800">
      <PointData>
        <DataArray type="Float32" Name="DISPLACEMENT" NumberOfComponents="3" ComponentName0="X-DISPLACEMENT" ComponentName1="Y-DISPLACEMENT" ComponentName2="Z-DISPLACEMENT" format="ascii" RangeMin="0" RangeMax="312.08174548">
          0 0 0 0 0 0
          2.3989992142 -1.4466198683 -1.0979273319 0 0 0
          1.4666310549 -0.83825558424 -0.79490053654 0 0 0
          2.200220108 -1.6230298281 -0.43267357349 1.2756243944 -0.98683190346 -0.32304897904
          0 0 0 4.3130846024 -2.8337461948 -1.1135116816
          0 0 0 4.2562270164 -3.0326626301 -0.57114958763
          2.9456665516 -2.3683114052 -0.88682585955 0 0 0
          0 0 0 2.2097995281 -1.6762681007 2.144390443e-08
          0.93538409472 -0.54225331545 -0.52901732922 1.2696713209 -1.0113453865 -1.6179457774e-09
          2.8806591034 -2.5284566879 -0.45121723413 0.79338949919 -0.68001556396 -0.21451297402
          4.2090144157 -3.0869121552 -2.7111026313e-08 1.9047601223 -2.0161614418 -0.64874482155
          0 0 0 2.842017889 -2.5778100491 -6.0537814761e-08
          1.8204963207 -2.1565299034 -0.33256390691 0 0 0
          6.0021162033 -4.6627607346 -1.0274893045 0 0 0
          0.78558164835 -0.69659221172 -6.0438072325e-09 0 0 0
          0 0 0 2.2002198696 -1.6230298281 0.43267357349
          4.3122525215 -4.2344169617 -0.85408240557 6.0223574638 -4.8009910583 -0.52346616983
          0.24803049862 -0.37431529164 -0.23457482457 1.2756242752 -0.98683184385 0.32304897904
          4.3259325027 -4.3627567291 -0.43428406119 0.11626999825 -0.52566730976 -0.11835155636
          1.7878706455 -2.1960434914 -7.578140071e-08 4.2562270164 -3.0326626301 0.57114952803
          0 0 0 0 0 0
          0.71208286285 -1.8139579296 -0.45931881666 2.908960104 -3.932559967 -0.69228464365
          6.0057969093 -4.8502707481 -1.2998044951e-07 2.880658865 -2.5284564495 0.45121708512
          2.8895833492 -4.04428339 -0.35319381952 0.79338943958 -0.68001556396 0.21451292932
          4.3157019615 -4.4050955772 -1.7078852466e-07 0.61687141657 -1.9315291643 -0.23632138968
          0.096777975559 -0.54229819775 -7.4895547542e-09 0 0 0
          7.5245957375 -6.7087378502 -0.90522176027 0 0 0
          5.6012802124 -6.3186445236 -0.78583025932 1.8204962015 -2.1565299034 0.33256372809
          7.569132328 -6.8036584854 -0.45910391212 2.3989989758 -1.4466197491 1.0979273319
          0 0 0 0 0 0
          0.59258550406 -1.9699565172 -7.8607413911e-08 2.8775706291 -4.0826473236 -1.9638190452e-07
          -0.066567420959 -0.62398797274 -0.27495998144 5.640203476 -6.4120874405 -0.39656859636
          1.4666309357 -0.83825552464 0.79490047693 1.503534317 -3.7112767696 -0.57732874155
          0 0 0 6.0223574638 -4.8009910583 0.52346587181
          -0.15388584137 -0.6812043786 -0.11607807875 1.4704909325 -3.8052964211 -0.28208762407
          4.3259325027 -4.3627567291 0.43428370357 0.11626990885 -0.52566730976 0.11835152656
          3.9270107746 -6.0153880119 -0.67106080055 0.10673540831 -1.9114714861 -0.40375134349
          7.569231987 -6.8373513222 -2.8199383451e-07 4.3130841255 -2.8337461948 1.1135115623
          0 0 0 0 0 0
          3.9435706139 -6.1054439545 -0.33895730972 2.9456663132 -2.3683114052 0.88682568073
          5.645512104 -6.4450669289 -3.2589670695e-07 0.09155767411 -1.9960672855 -0.18491366506
          0.9353839159 -0.54225325584 0.52901726961 -0.14484962821 -0.74501186609 2.6207304771e-08
          1.4531419277 -3.8366889954 -2.1518754068e-07 2.8895831108 -4.04428339 0.35319343209
          0.61687117815 -1.9315291643 0.23632121086 3.9440684319 -6.1373252869 -3.5777412677e-07
          1.9047596455 -2.0161614418 0.64874458313 0.089895047247 -2.0456876755 -1.0507572057e-07
          2.4196243286 -5.7791996002 -0.55875968933 7.569132328 -6.8036584854 0.45910331607
          6.0021157265 -4.6627607346 1.0274890661 0 0 0
          8.901679039 -8.8909158707 -0.80802023411 0 0 0
          0 0 0 0.47327455878 -3.630947113 -0.39014843106
          2.4175729752 -5.8694968224 -0.27816972136 8.9447078705 -8.9580831528 -0.40662762523
          6.813188076 -8.5264701843 -0.72043853998 5.6402029991 -6.4120874405 0.39656794071
          0.01507931482 -1.0080180168 0.12771399319 0 0 0
          4.3122520447 -4.2344169617 0.85408198833 0.24803027511 -0.37431532145 0.23457472026
          0.47148808837 -3.7375600338 -0.20341216028 -0.15388604999 -0.6812043786 0.1160781011
          -1.1822834015 -0.70310395956 0.030198063701 1.4704905748 -3.8052964211 0.28208717704
          6.8525390625 -8.5967969894 -0.36105623841 3.943570137 -6.1054439545 0.33895656466
          2.4075741768 -5.8951430321 -3.8637639932e-07 8.9517450333 -8.9822368622 -4.7718896212e-07
          -0.46039542556 -2.141859293 -0.26094701886 0.091557472944 -1.9960672855 0.18491347134
          0 0 0 4.9414868355 -8.2281064987 -0.62960642576
          0.71208238602 -1.8139579296 0.45931854844 2.9089596272 -3.9325597286 0.69228422642
          0.45973607898 -3.7598102093 -2.2661092203e-07 6.8623247147 -8.6213502884 -5.200851092e-07
          -1.2134953737 -0.77712368965 2.9481734032e-07 -1.1766543388 -1.9318907261 0.0039323712699
          4.9642663002 -8.299902916 -0.31475642323 7.5245952606 -6.7087378502 0.90522116423
          0 0 0 0.88772547245 -5.6235275269 -0.37489703298
          5.6012792587 -6.3186440468 0.78582954407 -1.2827925682 -2.0069732666 -1.4269215853e-07
          0.88116872311 -5.7271494865 -0.20780092478 4.9689211845 -8.3233976364 -5.5273659427e-07
          -0.066567786038 -0.62398803234 0.27495992184 2.4175724983 -5.8694968224 0.2781689465
          3.2294008732 -8.0169715881 -0.52425765991 8.9447078705 -8.9580831528 0.40662667155
          -0.3172494173 -3.9508085251 -0.39181050658 1.5035334826 -3.7112767696 0.57732826471
          0 0 0 0.47148796916 -3.7375600338 0.20341171324
          3.2348656654 -8.0871543884 -0.26675486565 -1.1822843552 -0.70310384035 -0.030197640881
          -0.37818944454 -3.95362854 -0.15490058064 6.8525385857 -8.5967969894 0.36105519533
          3.9270100594 -6.0153880119 0.6710600853 0.10673499107 -1.9114714861 0.40375122428
          10.166416168 -11.166947365 -0.73991835117 0 0 0
          0.88537341356 -5.7499127388 -3.8808553882e-07 7.9492473602 -10.827558517 -0.67025148869
          10.199894905 -11.219518661 -0.37064865232 0 0 0
          -0.13103361428 -1.2237423658 -0.076466545463 7.9801797867 -10.883317947 -0.33407324553
          3.2384347916 -8.1096401215 -5.8025591443e-07 -0.062931030989 -1.2146584988 -0.022117257118
          -1.1766557693 -1.9318910837 -0.0039325812832 -0.29468199611 -3.9831271172 1.5284830397e-06
          4.9642658234 -8.299902916 0.31475532055 5.8974127769 -10.561567307 -0.59565758705
          -0.23249532282 -2.5436062813 -0.22332859039 10.207935333 -11.238081932 -7.126217838e-07
          0 0 0 -0.31624004245 -2.4178283215 -0.13184598088
          5.9175171852 -10.615476608 -0.29553380609 7.9892721176 -10.902187347 -7.5059000437e-07
          -0.12786832452 -1.2236614227 9.9609742676e-08 2.4196233749 -5.7791991234 0.55875891447
          1.3784561157 -7.8719744682 -0.43804630637 8.9016780853 -8.8909158707 0.80801922083
          0 0 0 -0.086973398924 -5.8185162544 -0.48974913359
          0.88116842508 -5.7271490097 0.20780014992 0.47327429056 -3.6309473515 0.39014810324
          6.8131871223 -8.5264701843 0.72043740749 0.015077549964 -1.0080182552 -0.12771429121
          -0.06140973419 -5.8728337288 -0.20648886263 1.3730403185 -7.9348897934 -0.22322134674
          3.234865427 -8.0871534348 0.26675370336 -0.37819695473 -3.9536278248 0.15490099788
          5.9232053757 -10.632044792 -7.7756828887e-07 -0.37964677811 -2.3610644341 7.0075074632e-08
          3.9618191719 -10.410964012 -0.52251893282 -0.41878882051 -4.2032752037 -0.2347984165
          -0.46040192246 -2.1418569088 0.2609462738 10.199894905 -11.219517708 0.3706472218
          4.9414858818 -8.2281064987 0.62960523367 0 0 0
          1.389172554 -7.9585309029 -5.9283530618e-07 0.079733222723 -6.0178222656 -4.4733275217e-07
          3.9668684006 -10.450595856 -0.26183059812 7.9801793098 -10.883317947 0.33407175541
          -0.56011414528 -4.2041764259 -0.17981760204 -0.062931664288 -1.214658618 0.022117367014
          0.8877248168 -5.6235275269 0.37489616871 3.9709002972 -10.46640873 -7.9696121702e-07
          5.9175167084 -10.615476608 0.29553222656 -0.31624177098 -2.4178285599 0.13184547424
          -0.60222196579 -4.1654515266 -6.208990726e-07 11.349925041 -13.520643234 -0.69631296396
          0 0 0 11.37306118 -13.566650391 -0.34785187244
          3.2294001579 -8.0169706345 0.52425646782 9.0185146332 -13.199692726 -0.63421112299
          -0.31725764275 -3.9508087635 0.39180657268 0.40766057372 -8.1273374557 -0.57325422764
          0.017864024267 -1.3820251226 -0.066127113998 -0.061420045793 -5.8728256226 0.20648756623
          1.3730398417 -7.9348897934 0.22322012484 0 0 0
          9.0405960083 -13.247756004 -0.31541201472 0.41833412647 -8.109875679 -0.25512471795
          -0.033914227039 -1.3867609501 -0.034272376448 2.0431997776 -10.338410378 -0.51289486885
          -0.74536246061 -6.2808179855 -0.59999024868 10.166415215 -11.166947365 0.73991692066
          0 0 0 7.9492464066 -10.827558517 0.67024993896
          11.379838943 -13.582386971 -9.8721534414e-07 -0.8090968132 -6.2096352577 -0.2614774704
          2.0433461666 -10.358558655 -0.24817603827 -0.13103476167 -1.2237426043 0.076466180384
          6.7901415825 -12.950975418 -0.56820237637 -0.082838088274 -2.8379611969 -0.15410773456
          0 0 0 3.9668679237 -10.450595856 0.26182898879
          -0.56011623144 -4.2041754723 0.17981640995 9.0476207733 -13.263272285 -1.0149656191e-06
          0.45530328155 -8.1455202103 -8.264751159e-07 6.807062149 -12.99445343 -0.28107067943
          -0.13382925093 -2.8650820255 -0.084647871554 -0.027280321345 -1.3881424665 -7.3099833742e-08
          5.8974118233 -10.561567307 0.59565597773 -0.2324976176 -2.5436062813 0.22332763672
          2.0519931316 -10.376162529 -8.3007188323e-07 -0.76664215326 -6.2727160454 -2.5513820674e-06
          1.3784552813 -7.8719739914 0.43804499507 6.8116731644 -13.006640434 -1.0344438124e-06
          -0.14512193203 -2.8552496433 -4.5204177468e-07 -0.086989052594 -5.8185019493 0.48974564672
          11.37306118 -13.566650391 0.34784990549 4.6565594673 -12.818865776 -0.50860434771
          0 0 0 -0.22212921083 -4.5961546898 -0.23014543951
          4.6663827896 -12.84467411 -0.25428116322 9.0405960083 -13.247756004 0.31540995836
          -0.033914536238 -1.3867611885 0.034272149205 0.41833287477 -8.109875679 0.25512316823
          -0.27565491199 -4.6276779175 -0.12084764987 3.9618182182 -10.410964012 0.52251726389
          0.84370732307 -10.491830826 -0.56869345903 2.0433454514 -10.358558655 0.24817435443
          -0.41879209876 -4.2032737732 0.23479640484 -0.80909985304 -6.2096276283 0.26147270203
          -0.41323968768 -8.4772071838 -0.68389552832 0.88182729483 -10.489926338 -0.27620220184
          4.6676754951 -12.854707718 -1.0565416915e-06 6.8070616722 -12.99445343 0.28106862307
          -0.13382968307 -2.8650820255 0.084646932781 -0.40151363611 -8.4480247498 -0.30353665352
          -0.30130267143 -4.6298518181 -1.0971592701e-06 12.482819557 -15.947605133 -0.67141991854
          0 0 0 0.01697761938 -1.4739643335 -0.046145286411
          0.92206412554 -10.515618324 -9.05593879e-07 2.6767935753 -12.789248466 -0.50684958696
          10.043366432 -15.634490967 -0.61017435789 11.349924088 -13.520643234 0.6963109374
          0 0 0 0 0 0
          -0.3900077045 -8.4845285416 -5.7247700624e-07 -0.2817915082 -6.5739402771 -0.27613219619
          12.497154236 -15.992107391 -0.33490639925 2.6876180172 -12.794120789 -0.25228786469
          10.057523727 -15.68024826 -0.30341210961 9.0185136795 -13.199692726 0.63420909643
          -0.0052017327398 -1.4937734604 -0.020372495055 0.40765848756 -8.1273365021 0.57325333357
          0.017863349989 -1.3820252419 0.066126637161 -0.34123814106 -6.6438965797 -0.16671067476
          4.6663823128 -12.84467411 0.25427901745 -0.27565526962 -4.627676487 0.12084554881
          7.65878582 -15.380054474 -0.54460173845 2.0431985855 -10.338410378 0.51289308071
          -0.74536418915 -6.2808098793 0.59999138117 0 0 0
          -0.016822114587 -3.0566577911 -0.090755209327 12.502216339 -16.006792068 -1.2986977254e-06
          -0.010176342912 -1.499080658 -2.1940702766e-07 2.6914875507 -12.806785583 -1.1013669337e-06
          7.6723365784 -15.420802116 -0.26950150728 6.790140152 -12.950975418 0.5682002306
          10.062393188 -15.694385529 -1.3086186073e-06 -0.082839116454 -2.8379611969 0.15410663188
          -0.37874686718 -6.6413350105 -1.8043521095e-06 -0.048926107585 -3.0936858654 -0.046319942921
          0.88182675838 -10.489926338 0.27620044351 -0.40151438117 -8.4480247498 0.30353546143
          0.084771610796 -11.015924454 -0.66269099712 7.6765518188 -15.43133831 -1.3133836774e-06
          -0.058916844428 -3.1040956974 -6.3989006094e-07 0.053293023258 -10.920783043 -0.3210208118
          5.318543911 -15.220411301 -0.48420920968 0 0 0
          -0.070675104856 -4.8369417191 -0.12951736152 12.497154236 -15.992107391 0.33490377665
          -0.0052018454298 -1.4937734604 0.020372029394 2.6876175404 -12.794120789 0.25228565931
          5.3265051842 -15.242362976 -0.24318702519 4.6565585136 -12.818865776 0.50860220194
          10.057522774 -15.68024826 0.30340948701 1.3219411373 -12.930223465 -0.57361757755
          -0.45385563374 -8.797162056 -0.31093266606 -0.22212988138 -4.5961527824 0.23014371097
          -0.10718298703 -4.8946156502 -0.068936675787 -0.34123873711 -6.6438941956 0.16670800745
          1.3621673584 -12.923585892 -0.27914595604 -0.55463844538 -8.884560585 -0.22292387486
          0.00032193292282 -10.859886169 -9.329417594e-07 0.84370619059 -10.491830826 0.5686917901
          7.6723361015 -15.420802116 0.26949888468 -0.41324144602 -8.4772062302 0.68389439583
          5.324909687 -15.248594284 -1.3313541558e-06 -0.048926278949 -3.093685627 0.046318650246
          -0.1203334555 -4.9097094536 -1.1622337297e-06 1.3984168768 -12.944620132 -1.1619603129e-06
          -0.55160337687 -8.8953943253 -1.5245580016e-06 -0.13074654341 -6.8777060509 -0.17610993981
          3.1890571117 -15.18730545 -0.48090457916 12.482818604 -15.947605133 0.67141729593
          0 0 0 0.053292650729 -10.920783043 0.32101896405
          0.016977136955 -1.4739643335 0.046144679189 -0.17979757488 -6.9529623985 -0.091744579375
          2.6767921448 -12.789248466 0.50684738159 10.043365479 -15.634490967 0.61017173529
          3.2002215385 -15.184640884 -0.24312187731 13.590675354 -18.455163956 -0.66000014544
          0 0 0 -0.2817928791 -6.5739369392 0.27613011003
          13.598203659 -18.500734329 -0.32897338271 0.0068912133574 -1.5255541801 -0.018141806126
          11.045754433 -18.143859863 -0.59701192379 5.3265047073 -15.242362976 0.24318434298
          0 0 0 -0.1071832329 -4.8946151733 0.068934440613
          11.053508759 -18.189981461 -0.29697841406 -0.0034081423655 -1.5482058525 -0.0075839762576
          1.3621668816 -12.923585892 0.27914366126 -0.55463951826 -8.8845596313 0.22292116284
          7.6587843895 -15.380054474 0.54459911585 -0.19143930078 -6.9820585251 -1.5294994e-06
          3.2010650635 -15.192713737 -1.3746025616e-06 -0.016822738573 -3.0566573143 0.090753912926
          0.35006532073 -13.228699684 -0.62372994423 -0.0063250488602 -3.1618237495 -0.035543911159
          8.5224437714 -17.880989075 -0.53052788973 -1.080436945 -11.341052055 -0.66168671846
          13.601541519 -18.515476227 -1.6455271634e-06 0 0 0
          0.38336676359 -13.223549843 -0.31394413114 11.05665493 -18.204059601 -1.627538154e-06
          -0.0049867136404 -1.5554728508 -2.9602435347e-07 8.530880928 -17.922651291 -0.26299032569
          -0.020201882347 -3.2016534805 -0.0175391417 -0.99153184891 -11.266222 -0.4444886148
          0.084770783782 -11.015924454 0.66268920898 0.40151146054 -13.237650871 -1.2238142517e-06
          -0.18345701694 -9.2246551514 -0.29244750738 -0.17979800701 -6.9529614449 0.091741576791
          1.8359411955 -15.361598969 -0.57091885805 8.5340051651 -17.934116364 -1.6058835399e-06
          5.3185424805 -15.220411301 0.48420649767 3.2002208233 -15.184640884 0.2431191355
          -0.96744859219 -11.247241974 -1.0600689393e-06 -0.02476740256 -3.2150342464 -7.3096168762e-07
          -0.070675820112 -4.8369407654 0.12951532006 13.598202705 -18.500734329 0.32897007465
          6.0067191124 -17.686641693 -0.47211849689 -0.23022243381 -9.3511257172 -0.14872428775
          -0.029229022563 -4.9802827835 -0.054806239903 1.8700640202 -15.345768929 -0.27545464039
          1.3219401836 -12.930223465 0.57361531258 -0.45385694504 -8.7971601486 0.31093040109
          0 0 0 -0.046362914145 -5.0381932259 -0.027272831649
          11.053507805 -18.189981461 0.2969751358 -0.0034082334023 -1.5482057333 0.0075833825395
          6.0151600838 -17.713022232 -0.23607625067 -0.22652254999 -9.3555326462 -1.6419070334e-06
          1.8969601393 -15.357297897 -1.4340720327e-06 0.38336643577 -13.223550797 0.31394171715
          6.0171737671 -17.720964432 -1.6013345885e-06 -0.052333202213 -5.0580887794 -1.2066882391e-06
          8.530880928 -17.922651291 0.26298710704 -0.020202068612 -3.2016532421 0.017537683249
          -0.99153190851 -11.266222 0.44448655844 -0.13074733317 -6.8777046204 0.17610737681
          3.1890559196 -15.18730545 0.48090183735 3.6909136772 -17.607292175 -0.46249169111
          13.590673447 -18.455163956 0.65999680758 0 0 0
          -0.04889299348 -7.0598964691 -0.081502199173 0.0068907416426 -1.5255540609 0.018141115084
          11.045753479 -18.143859863 0.59700864553 -0.23022291064 -9.3511257172 0.1487211138
          1.8700635433 -15.345768929 0.27545180917 3.705108881 -17.606222153 -0.23284165561
          -0.76515763998 -13.438100815 -0.61755007505 -0.067750521004 -7.1404261589 -0.041300985962
          -0.046363178641 -5.0381932259 0.027270462364 6.0151596069 -17.713022232 0.23607304692
          -0.65949767828 -13.52464962 -0.3142246902 0.76192831993 -15.593011856 -0.59788072109
          -0.21487031877 -11.926393509 -0.41791120172 14.689534187 -21.055540085 -0.65683281422
          0 0 0 12.038039207 -20.744068146 -0.59164756536
          0.35006457567 -13.228699684 0.62372761965 -0.0063257459551 -3.1618235111 0.035542469472
          8.5224428177 -17.880989075 0.53052467108 -0.15130841732 -11.717734337 -0.27078294754
          0.79014223814 -15.58354187 -0.29649335146 -1.080437541 -11.341052055 0.66168481112
          14.692532539 -21.102872849 -0.32739368081 0 0 0
          -0.071808338165 -7.1688361168 -1.5966026012e-06 3.7099084854 -17.613975525 -1.6263767293e-06
          -0.013895281591 -1.5393476486 0.010495987721 12.041244507 -20.791397095 -0.29465794563
          -0.010158907622 -1.5622675419 0.0042566293851 -0.56779956818 -13.607884407 -1.2947838286e-06
          9.389295578 -20.472997665 -0.52491164207 -0.10316231102 -11.890089989 -1.6488617121e-06
          0.80956929922 -15.588920593 -1.4816140492e-06 14.694404602 -21.118078232 -2.0285428945e-06
          0 0 0 -0.023858318105 -3.1887784004 0.01489101816
          9.3937215805 -20.516653061 -0.26064032316 12.042910576 -20.806060791 -1.9703863927e-06
          -0.18345788121 -9.224653244 0.29244470596 1.8359402418 -15.361598969 0.57091605663
          -0.0097111901268 -1.5698143244 -3.2442056863e-07 -0.020405899733 -3.2282862663 0.0074571170844
          6.0067181587 -17.686641693 0.47211527824 -0.029229789972 -4.9802823067 0.054804008454
          -0.084941133857 -9.4549236298 -0.096003718674 2.3358221054 -17.76210022 -0.5574092865
          -0.06775085628 -7.1404256821 0.041297882795 3.7051081657 -17.606222153 0.23283840716
          -0.095813885331 -9.5646018982 -0.051047943532 2.3616433144 -17.738388062 -0.26801925898
          -0.65949773788 -13.52464962 0.3142221272 9.3959150314 -20.529251099 -1.9073934254e-06
          -0.019145289436 -3.2424888611 -7.688512369e-07 6.7352261543 -20.251394272 -0.46421295404
          -0.15130874515 -11.717734337 0.2707799077 0.79014199972 -15.58354187 0.29649040103
          14.692532539 -21.102872849 0.3273896277 0 0 0
          -0.02970514819 -5.014714241 0.019295483828 6.7421751022 -20.284076691 -0.23130623996
          12.041243553 -20.791397095 0.29465398192 -0.027114283293 -5.073135376 0.0097385020927
          -0.12034098059 -9.5913238525 -1.8066820076e-06 2.3805186749 -17.741113663 -1.6858228946e-06
          -0.010159008205 -1.5622675419 -0.004257272929 9.3937206268 -20.516653061 0.26063647866
          6.744843483 -20.29388237 -1.858341534e-06 -0.026532040909 -5.093682766 -1.2531162383e-06
          3.6909122467 -17.607292175 0.46248844266 -0.23617692292 -15.879377365 -0.62825322151
          -0.02040610835 -3.2282862663 -0.0074586509727 -0.048893775791 -7.0598959923 0.081499308348
          -0.40742957592 -13.896555901 -0.64680403471 -0.22650657594 -15.865206718 -0.30670508742
          -0.76515799761 -13.438100815 0.61754757166 -0.40476077795 -17.044668198 0.069282308221
          -0.09581425041 -9.5646009445 0.051044411957 2.3616428375 -17.738389969 0.26801589131
          0.76192766428 -15.593011856 0.59787780046 -0.21487116814 -11.926393509 0.41790804267
          -0.02832293883 -7.0945649147 0.023059105501 4.2397398949 -20.113775253 -0.44153404236
          14.689533234 -21.055541992 0.6568287015 0 0 0
          12.038038254 -20.744068146 0.59164363146 -0.028304921463 -7.1721096039 0.011995756999
          -0.21898786724 -15.865866661 -1.5248089085e-06 -0.12232946604 -12.324873924 -0.092981114984
          1.2314096689 -17.970903397 -0.59029871225 4.253780365 -20.11980629 -0.22078816593
          -0.013895782642 -1.5393476486 -0.010496716946 -0.65601617098 -17.021741867 -1.9940334823e-06
          6.7421746254 -20.284076691 0.23130249977 -0.027114553377 -5.073135376 -0.0097409673035
          1.2421190739 -17.945137024 -0.28898838162 -0.41958889365 -12.496306419 0.0085182730108
          9.3892936707 -20.472997665 0.52490776777 -0.029033388942 -7.1976075172 -1.6784009631e-06
          4.2585945129 -20.127908707 -1.8438196321e-06 -0.023859061301 -3.188778162 -0.014892531559
          1.2489173412 -17.937299728 -1.7203221887e-06 15.786515236 -23.758647919 -0.65744531155
          0 0 0 -0.52816665173 -12.701659203 -1.8815599105e-06
          15.787004471 -23.807411194 -0.3279106915 0 0 0
          -0.22650666535 -15.865206718 0.30670204759 13.027234077 -23.446455002 -0.59082812071
          -0.084941849113 -9.4549226761 0.096000380814 2.3358211517 -17.76210022 0.55740600824
          -0.031812366098 -1.5190378428 0.038512710482 -0.40476158261 -17.044672012 -0.069287195802
          13.027791977 -23.494842529 -0.29468852282 -0.014649813995 -1.5408639908 0.015935953707
          6.7352247238 -20.251394272 0.46420916915 15.78782177 -23.823141098 -2.4506723548e-06
          -0.028305223212 -7.1721096039 -0.011999049224 10.263885498 -23.168891907 -0.52402412891
          -0.037519115955 -3.1436827183 0.064938805997 4.2537794113 -20.11980629 0.22078445554
          0 0 0 2.8750164509 -20.196151733 -0.54712307453
          -0.017467278987 -9.5523614883 0.021897885948 -0.029705969617 -5.0147137642 -0.019297827035
          -0.015769451857 -3.1835179329 0.032380782068 10.265519142 -23.214796066 -0.26062533259
          13.028450012 -23.510116577 -2.3395800781e-06 1.2421188354 -17.945137024 0.28898495436
          -0.023777047172 -9.6708917618 0.010287223384 2.8951301575 -20.165761948 -0.26118287444
          -0.41958928108 -12.496306419 -0.0085220076144 -0.01214068383 -1.5479753017 -3.2281857898e-07
          -0.93560755253 -16.328624725 -0.70765924454 10.266812325 -23.228719711 -2.2204169454e-06
          -0.23617728055 -15.879377365 0.62825024128 -0.0086683370173 -3.1969316006 -7.6689121897e-07
          -0.022962415591 -9.7379159927 -1.9809758669e-06 -0.89391714334 -16.358110428 -0.34058180451
          2.9092965126 -20.163354874 -1.9059959868e-06 -0.40742957592 -13.896555901 0.64680075645
          15.787003517 -23.807411194 0.32790580392 7.4884476662 -22.929162979 -0.46039149165
          -0.095413960516 -15.061889648 0.052368611097 0 0 0
          -0.027036065236 -4.9429574013 0.092332154512 0.2385507524 -18.22949028 -0.62849873304
          -0.0036979715806 -5.0031590462 0.046216323972 7.4928178787 -22.968173981 -0.22925965488
          13.027791023 -23.494842529 0.29468384385 -0.76517319679 -16.601957321 -0.026730876416
          0.23003223538 -18.200023651 -0.30335986614 -0.014649919234 -1.5408639908 -0.015936594456
          -0.028323730454 -7.0945649147 -0.023062195629 4.2397384644 -20.113775253 0.44153028727
          -0.88670384884 -16.389482498 -1.6036102579e-06 -0.12232980132 -12.324873924 0.092977784574
          1.2314090729 -17.970903397 0.59029537439 7.4950723648 -22.979991913 -2.1144578568e-06
          10.265519142 -23.214796066 0.26062089205 -0.8255469203 -16.715528488 -1.2061569805e-06
          -0.015769666061 -3.1835179329 -0.032382309437 0.0044827717356 -5.0247654915 -1.2737580164e-06
          -0.023777356371 -9.6708917618 -0.010291092098 2.8951296806 -20.165761948 0.26117905974
          0.21878995001 -18.187877655 -1.751132686e-06 1.7407232523 -20.339075089 -0.58807128668
          -0.017894733697 -12.44462204 -0.010061808862 1.7363579273 -20.301309586 -0.28421825171
          -0.027593627572 -12.819984436 -0.010233399458 15.786513329 -23.758647919 0.65744042397
          0 0 0 -0.89391726255 -16.358112335 0.34057861567
          -0.0076436195523 -6.998395443 0.12938544154 4.8485031128 -22.754196167 -0.42127898335
          0.012149896473 -7.0813660622 0.06437279284 13.027233124 -23.446455002 0.59082341194
          -0.031812876463 -1.519037962 -0.038513433188 4.8608927727 -22.770280838 -0.21082286537
          7.492816925 -22.968173981 0.22925540805 -0.76517248154 -16.601959229 0.026728631929
          -0.003698204644 -5.0031590462 -0.046218823642 0.23003220558 -18.200023651 0.30335637927
          1.729571104 -20.281505585 -1.9320023057e-06 -0.029149377719 -12.998496056 -2.0488814698e-06
          10.263884544 -23.168891907 0.52401959896 -0.037519864738 -3.1436827183 -0.064940311015
          2.8750154972 -20.196151733 0.54711931944 0.014777114615 -7.1133050919 -1.7634361029e-06
          -0.017467971891 -9.5523614883 -0.021901521832 4.8655338287 -22.779743195 -2.037112381e-06
          16.883958817 -26.569358826 -0.65932923555 0 0 0
          -0.93560791016 -16.328624725 0.70765608549 1.7363576889 -20.301311493 0.28421440721
          0 0 0 14.016299248 -26.256832123 -0.5920830369
          -0.68743491173 -18.82093811 -0.063916034997 -0.027593899518 -12.819984436 0.010229310021
          -0.034806840122 -1.4563846588 0.064783520997 -0.52016669512 -18.60943222 -0.64208078384
          16.883388519 -26.619060516 -0.32917630672 7.4884462357 -22.929162979 0.46038717031
          14.015795708 -26.305971146 -0.29564866424 -0.0049744602293 -1.4755538702 0.028184583411
          -0.09541426599 -15.061889648 -0.052372016013 -0.82623279095 -18.155794144 -0.20415049791
          -0.027036860585 -4.9429574013 -0.092334531248 3.5190653801 -22.722677231 -0.53501194715
          0.012149668299 -7.0813660622 -0.064376235008 0.23855052888 -18.22949028 0.62849527597
          0.040669050068 -9.3786249161 0.14589120448 4.860891819 -22.770280838 0.21081875265
          -0.55303287506 -18.575220108 -0.30769667029 0.042645730078 -9.4934473038 0.075223252177
          3.5341949463 -22.686403275 -0.25391975045 11.144544601 -25.977310181 -0.52563989162
          16.883670807 -26.635246277 -2.9174104839e-06 -0.0082285320386 -3.0221710205 0.12013563514
          0 0 0 11.144295692 -26.024375916 -0.26181915402
          0.028238603845 -3.0556161404 0.062241777778 14.016015053 -26.321792603 -2.7397886697e-06
          0.75957399607 -20.562404633 -0.61579447985 -0.88722366095 -17.708347321 -1.6707670056e-06
          -0.58579266071 -18.555971146 -1.8078117137e-06 -0.068151213229 -15.692918777 -0.081545740366
          0.00020912213949 -1.4803060293 -3.0848309507e-07 0.72896212339 -20.512245178 -0.2929739356
          3.543510437 -22.67975235 -2.085056849e-06 -0.062447406352 -16.083820343 -0.076098315418
          0.061765428632 -9.5173549652 -2.1255380034e-06 1.7407227755 -20.339075089 0.58806747198
          11.144667625 -26.03894043 -2.5510082651e-06 -0.017895268276 -12.44462204 0.010057819076
          0.040843181312 -3.0649111271 -7.1298535431e-07 8.2609882355 -25.727897644 -0.46026197076
          16.883386612 -26.619060516 0.32917046547 0.69361627102 -20.475809097 -1.9466754111e-06
          0.028576353565 -4.7685599327 0.1681496352 -0.0076443655416 -6.9983959198 -0.12938864529
          -0.063101232052 -16.382570267 -1.895784294e-06 4.8485016823 -22.754196167 0.42127475142
          0 0 0 8.2632598877 -25.770654678 -0.22878499329
          0.077464997768 -4.8289246559 0.088600337505 14.015795708 -26.305971146 0.29564318061
          -0.82623249292 -18.155794144 0.20414687693 -0.55303275585 -18.575220108 0.30769306421
          -0.0049745822325 -1.4755539894 -0.02818518877 3.534194231 -22.686403275 0.25391557813
          0.042645521462 -9.4934482574 -0.075227446854 11.144294739 -26.024375916 0.26181405783
          8.2655887604 -25.783344269 -2.3696543394e-06 2.3503129482 -22.737213135 -0.58568757772
          0.074792124331 -12.307954788 0.13443076611 0.093595795333 -4.8458747864 -1.2116769312e-06
          0.028238384053 -3.0556161404 -0.062243193388 0.36753004789 -12.495592117 -0.0011322846403