<?xml version="1.0"?>
<VTKFile type="UnstructuredGrid" version="0.1" byte_order="LittleEndian" header_type="UInt32" compressor="vtkZLibDataCompressor">
  <UnstructuredGrid>
    <Piece NumberOfPoints="6405" NumberOfCells="4800">
      <PointData>
        <DataArray type="Float32" Name="DISPLACEMENT" NumberOfComponents="3" ComponentName0="X-DISPLACEMENT" ComponentName1="Y-DISPLACEMENT" ComponentName2="Z-DISPLACEMENT" format="ascii" RangeMin="0" RangeMax="264.38780147">
          0 0 0 0 0 0
          2.0540082455 -1.263433814 -0.94990116358 0 0 0
          1.3229267597 -0.75067895651 -0.73561376333 0 0 0
          1.8764930964 -1.3934836388 -0.37757700682 1.1515401602 -0.85742259026 -0.29984053969
          0 0 0 3.6821839809 -2.315816164 -0.97161996365
          0 0 0 3.6309957504 -2.4688653946 -0.50160259008
          2.6565616131 -1.902823329 -0.80891013145 0 0 0
          0 0 0 1.8832935095 -1.4376708269 -3.6570935436e-07
          0.96571666002 -0.515204072 -0.56678086519 1.1469540596 -0.87888973951 -1.7002142272e-07
          2.601739645 -2.025154829 -0.41309601068 0.83200263977 -0.61197525263 -0.22969561815
          3.5902884007 -2.5119624138 -8.2162080162e-07 1.9347360134 -1.5535639524 -0.63226270676
          0 0 0 2.5665881634 -2.0654811859 -4.5665970561e-07
          1.877223134 -1.6688183546 -0.32446306944 0 0 0
          5.1594610214 -3.6653118134 -0.90875601768 0 0 0
          0.8270136714 -0.63029563427 5.1311769056e-08 0 0 0
          0 0 0 1.8764930964 -1.3934839964 0.37757629156
          3.9101426601 -3.2685828209 -0.77025681734 5.1759338379 -3.7759101391 -0.46353492141
          0.69943487644 -0.34076967835 -0.39780375361 1.151540041 -0.85742300749 0.29984018207
          3.9235613346 -3.3736042976 -0.39249777794 0.6047372818 -0.44644883275 -0.16704131663
          1.8449960947 -1.7005778551 -5.2902002778e-08 3.6309957504 -2.4688661098 0.50160092115
          0 0 0 0 0 0
          1.3497630358 -1.3233807087 -0.43912082911 2.9249527454 -2.948974371 -0.63003259897
          5.1628398895 -3.8161563873 -1.383519475e-06 2.6017394066 -2.0251555443 0.41309505701
          2.9157896042 -3.0497701168 -0.31965860724 0.83200246096 -0.61197572947 0.22969567776
          3.9144711494 -3.408567667 -8.5258477611e-07 1.2933388948 -1.4398058653 -0.2251393497
          0.59611052275 -0.4616240561 3.8180556317e-07 0 0 0
          6.5254688263 -5.1938738823 -0.8118994236 0 0 0
          5.0925092697 -4.8360319138 -0.71080499887 1.8772226572 -1.6688193083 0.32446295023
          6.5620594025 -5.2733268738 -0.41120132804 2.0540077686 -1.2634344101 0.94990038872
          0 0 0 0 0 0
          1.266358614 -1.4688165188 4.2432685632e-07 2.9046151638 -3.0791373253 -2.9067143714e-07
          0.36896926165 -0.30196905136 -0.18501354754 5.1244897842 -4.9151263237 -0.35830006003
          1.3229261637 -0.75067979097 0.7356132865 2.0404398441 -2.7249176502 -0.47592073679
          0 0 0 5.1759333611 -3.7759113312 0.46353211999
          0.33858445287 -0.43642178178 -0.094611629844 2.000951767 -2.8183877468 -0.24302139878
          3.9235606194 -3.3736054897 0.3924960494 0.60473680496 -0.44644936919 0.16704203188
          3.8813347816 -4.556397438 -0.60987049341 0.53196585178 -1.1972185373 -0.22187395394
          6.5626411438 -5.3014788628 -2.0306815713e-06 3.6821832657 -2.3158175945 0.97161817551
          0 0 0 0 0 0
          3.8920354843 -4.6321253777 -0.30609861016 2.6565606594 -1.9028249979 0.80890905857
          5.12911129 -4.9426231384 -1.3592829191e-06 0.47640651464 -1.3216017485 -0.12780994177
          0.965716362 -0.51520508528 0.56678086519 0.33297765255 -0.46785411239 8.8019652367e-07
          1.9844127893 -2.8425104618 3.4203623045e-07 2.9157888889 -3.0497715473 0.3196580112
          1.293338418 -1.4398069382 0.22514018416 3.8925626278 -4.6569919586 -6.6244109576e-07
          1.9347351789 -1.5535657406 0.63226252794 0.46021568775 -1.3506772518 9.7899282991e-07
          2.758020401 -4.3853063583 -0.51473391056 6.5620584488 -5.2733283043 0.41119721532
          5.1594595909 -3.6653139591 0.90875309706 0 0 0
          7.7720146179 -6.8486595154 -0.73348969221 0 0 0
          0 0 0 0.89884442091 -2.5596942902 -0.35158953071
          2.7416815758 -4.4439325333 -0.25850620866 7.806678772 -6.9063062668 -0.3690084219
          6.1950659752 -6.520840168 -0.65896612406 5.1244888306 -4.915128231 0.35829731822
          -0.041385449469 -0.27531611919 -0.050290167332 0 0 0
          3.9101409912 -3.2685849667 0.7702549696 0.69943434 -0.34077087045 0.39780437946
          0.83955967426 -2.6469066143 -0.17597301304 0.33858388662 -0.43642243743 0.094613336027
          -0.12443619221 -0.38596141338 -0.01311457064 2.0009512901 -2.8183891773 0.24302206933
          6.2266712189 -6.5808115005 -0.32974278927 3.8920345306 -4.632127285 0.30609726906
          2.7357265949 -4.4624767303 1.0578568066e-07 7.8126506805 -6.9271168709 -2.7653125017e-06
          0.30603557825 -1.529004097 -0.3373671174 0.4764059186 -1.3216028214 0.12781189382
          0 0 0 4.7917766571 -6.2668309212 -0.58373385668
          1.3497623205 -1.3233828545 0.43912166357 2.9249513149 -2.9489767551 0.63003194332
          0.82643467188 -2.6747689247 1.0442419125e-06 6.2348780632 -6.6018314362 -1.9785975383e-06
          -0.11681559682 -0.42104125023 9.1962806437e-07 0.22683118284 -1.5028944016 -0.10949106514
          4.8103451729 -6.3247008324 -0.29241758585 6.5254669189 -5.1938767433 0.81189519167
          0 0 0 1.6031748056 -4.2656769753 -0.47673380375
          5.0925073624 -4.8360347748 0.71080213785 0.27333274484 -1.5476822853 2.0993420549e-06
          1.5397883654 -4.3015727997 -0.21569474041 4.8146686554 -6.3451037407 -1.1691446389e-06
          0.3689686358 -0.30197054148 0.18501520157 2.7416808605 -4.4439339638 0.25850638747
          3.4898042679 -6.0931310654 -0.51707750559 7.8066778183 -6.9063076973 0.36900284886
          0.52666842937 -2.7008190155 -0.43743416667 2.0404388905 -2.7249205112 0.47592133284
          0 0 0 0.8395588994 -2.6469080448 0.17597509921
          3.4982028008 -6.1457433701 -0.25942769647 -0.12443684042 -0.38596227765 0.01311633084
          0.55973982811 -2.7532672882 -0.15929746628 6.2266697884 -6.5808129311 0.32973879576
          3.8813331127 -4.5564007759 0.6098690629 0.53196501732 -1.1972208023 0.22187590599
          8.9241189957 -8.5801124573 -0.68076848984 0 0 0
          1.488478899 -4.3056488037 9.9756175587e-07 7.2296123505 -8.2715673447 -0.61854249239
          8.9504995346 -8.6276960373 -0.34124058485 0 0 0
          0.12038103491 -0.6358782053 -0.1700682193 7.2546787262 -8.3217945099 -0.30845591426
          3.5015063286 -6.1661515236 -2.9075667385e-07 0.080096311867 -0.65833294392 -0.04924787581
          0.22682970762 -1.502895236 0.10949509591 0.60546445847 -2.8509068489 2.2109534257e-06
          4.8103442192 -6.3247027397 0.29241523147 5.6597919464 -8.0317144394 -0.55262863636
          0.10317093134 -1.6225241423 -0.17552438378 8.9575586319 -8.6446399689 -3.5970119825e-06
          0 0 0 0.061891447753 -1.6664021015 -0.11952865124
          5.6802363396 -8.0814313889 -0.2758436203 7.2619872093 -8.3389873505 -2.7169216992e-06
          0.073360703886 -0.67456781864 7.9551460885e-07 2.7580187321 -4.3853096962 0.51473402977
          2.3383207321 -5.9507155418 -0.46017360687 7.7720117569 -6.8486628532 0.73348397017
          0 0 0 0.94712418318 -4.3383407593 -0.33475571871
          1.5397874117 -4.301574707 0.21569673717 0.89884322882 -2.5596971512 0.35159155726
          6.195063591 -6.5208435059 0.65896195173 -0.041385453194 -0.27531725168 0.050291523337
          0.94339293242 -4.4152760506 -0.17952652276 2.2918748856 -5.9944033623 -0.23435479403
          3.4982018471 -6.1457457542 0.25942710042 0.5597384572 -2.7532684803 0.15930180252
          5.6854691505 -8.0985918045 -1.8079681467e-06 0.050888244063 -1.6669242382 5.5441823861e-06
          4.2189717293 -7.8703551292 -0.49326452613 0.05684575066 -2.9833927155 -0.37197342515
          0.30603420734 -1.5290067196 0.33737099171 8.9504985809 -8.6276979446 0.34123334289
          4.7917742729 -6.266834259 0.58373141289 0 0 0
          2.2308385372 -5.9957971573 7.191089253e-07 0.91403371096 -4.4217653275 2.2075653305e-06
          4.2307901382 -7.9194302559 -0.24664363265 7.2546772957 -8.3217964172 0.30845043063
          0.047395583242 -3.0270965099 -0.15451750159 0.080102011561 -0.65833330154 0.049251578748
          1.6031732559 -4.2656807899 0.4767358005 4.2282915115 -7.9390330315 -8.4612355522e-07
          5.6802344322 -8.0814342499 0.27583995461 0.061913393438 -1.6663993597 0.1195403859
          0.046290908009 -3.0532195568 1.5742823962e-05 10.019262314 -10.375218391 -0.65112960339
          0 0 0 10.036559105 -10.421195984 -0.32540345192
          3.4898021221 -6.0931353569 0.51707684994 8.2165269852 -10.074538231 -0.58921265602
          0.52666658163 -2.7008221149 0.4374384582 1.1080403328 -5.8468980789 -0.32625460625
          0.057249695063 -0.790168643 -0.08877967298 0.94339156151 -4.4152779579 0.1795309037
          2.2918736935 -5.9944057465 0.23435623944 0 0 0
          8.2342443466 -10.122758865 -0.29330766201 1.1041295528 -5.895550251 -0.21312637627
          0.026575122029 -0.82445847988 -0.040345508605 2.9190030098 -7.7724370956 -0.43241250515
          0.299569875 -4.5896654129 -0.37500828505 8.9241161346 -8.580116272 0.68076109886
          0 0 0 7.2296094894 -8.2715711594 0.61853688955
          10.042566299 -10.436952591 -4.5483666327e-06 0.25967824459 -4.600774765 -0.18189977109
          2.9342551231 -7.8224444389 -0.22946873307 0.12039547414 -0.63588005304 0.17007511854
          6.4864001274 -9.8386335373 -0.52293455601 0.047497656196 -1.8264966011 -0.13214558363
          0 0 0 4.2307887077 -7.9194321632 0.24664191902
          0.047486755997 -3.0271267891 0.154617697 8.2400388718 -10.138534546 -3.5902103264e-06
          1.1118613482 -5.8812408447 1.8360610738e-06 6.5019073486 -9.8850708008 -0.2588313818
          0.022233415395 -1.8779380322 -0.063396461308 0.024510249496 -0.82846075296 2.7372645945e-06
          5.6597886086 -8.0317182541 0.55262488127 0.1032146588 -1.6225277185 0.17555867136
          2.9446883202 -7.8481988907 2.0675480528e-07 0.32034891844 -4.6407623291 4.4940311454e-06
          2.3383188248 -5.9507198334 0.46017503738 6.5040688515 -9.8978214264 -2.5891654332e-06
          0.012419176288 -1.8948056698 9.6736339401e-06 0.94712197781 -4.338344574 0.33476009965
          10.036557198 -10.421197891 0.32539430261 4.8732333183 -9.7160577774 -0.45264607668
          0 0 0 0.059997133911 -3.1048514843 -0.13155551255
          4.8841409683 -9.7536811829 -0.22287878394 8.2342424393 -10.122761726 0.29330042005
          0.026579789817 -0.82445663214 0.040351696312 1.1041282415 -5.8955526352 0.21313007176
          0.033421941102 -3.1817183495 -0.078768722713 4.2189688683 -7.8703598976 0.49326276779
          1.4679858685 -7.6684827805 -0.40014758706 2.934253931 -7.8224473 0.22946918011
          0.056894887239 -2.9834098816 0.37205386162 0.25973781943 -4.6008367538 0.18190957606
          0.5739928484 -6.2096762657 -0.5011177659 1.5159938335 -7.7166461945 -0.19566299021
          4.8798789978 -9.7640857697 -1.5228849861e-06 6.5019054413 -9.8850727081 0.25882613659
          0.022243220359 -1.8779351711 0.063420601189 0.56667524576 -6.1432561874 -0.1920620203
          0.02010290511 -3.1898784637 2.0330020561e-05 11.088852882 -12.247462273 -0.63752406836
          0 0 0 0.012207505293 -0.87661457062 -0.034774143249
          1.5970817804 -7.7618684769 1.3573060187e-06 3.4288096428 -9.7123365402 -0.41522479057
          9.1773872375 -11.947357178 -0.57104176283 10.019258499 -10.375222206 0.65112030506
          0 0 0 0 0 0
          0.62260210514 -6.1610331535 3.4889010294e-06 0.081229381263 -4.5724902153 -0.14173845947
          11.098622322 -12.295646667 -0.31790471077 3.446393013 -9.7277812958 -0.19951492548
          9.1873626709 -11.997266769 -0.28427559137 8.2165231705 -10.074542046 0.58920526505
          0.00069922948023 -0.91006761789 -0.013877925463 1.108038187 -5.8469028473 0.32625842094
          0.057261765003 -0.79016518593 0.088789537549 0.035104170442 -4.6670951843 -0.11647312343
          4.884139061 -9.7536840439 0.2228756845 0.033425290138 -3.1817364693 0.078794725239
          7.2927050591 -11.698495865 -0.49910724163 2.9190006256 -7.7724423409 0.43241295218
          0.29967361689 -4.5897722244 0.3750154376 0 0 0
          -0.0065068914555 -1.937232852 -0.043285943568 11.102841377 -12.311513901 -5.6524759202e-06
          -0.0011691100663 -0.91828525066 3.2888635815e-06 3.4539008141 -9.7335882187 -4.4508206543e-07
          7.3044929504 -11.745534897 -0.24614457786 6.4863963127 -9.8386383057 0.52292919159
          9.1909914017 -12.013012886 -4.6252066568e-06 0.04751560092 -1.826493144 0.13216926157
          0.039613507688 -4.6734199524 2.1403388018e-05 -0.016267664731 -1.9875510931 -0.021700045094
          1.5159929991 -7.7166490555 0.19566582143 0.56667512655 -6.1432585716 0.19206888974
          0.88157647848 -7.9224514961 -0.49581572413 7.3083877563 -11.757007599 -3.5347557059e-06
          -0.021546287462 -2.0024061203 8.1163625509e-06 0.92773127556 -7.9334001541 -0.19415947795
          5.4448747635 -11.559188843 -0.42400828004 0 0 0
          -0.029072891921 -3.1996591091 -0.043111823499 11.098620415 -12.295648575 0.31789335608
          0.00070058536949 -0.91006565094 0.013884790242 3.4463915825 -9.7277841568 0.19951406121
          5.4364051819 -11.588223457 -0.21001668274 4.8732295036 -9.7160625458 0.45264279842
          9.1873607635 -11.99726963 0.28426629305 2.177926302 -9.7375202179 -0.44031712413
          -0.049164000899 -6.4952759743 -0.51166784763 0.060011196882 -3.1048538685 0.13158357143
          -0.041053399444 -3.2649652958 -0.021574379876 0.035112496465 -4.6671319008 0.11650918424
          2.1679575443 -9.7331027985 -0.19369132817 -0.0081597026438 -6.4514737129 -0.2824627161
          0.94577211142 -7.9864058495 2.6662489745e-06 1.4679841995 -7.6684885025 0.40015083551
          7.3044905663 -11.745536804 0.2461374402 0.57399177551 -6.2096815109 0.5011241436
          5.4173455238 -11.587189674 -2.3948953185e-06 -0.016267072409 -1.9875518084 0.02171558328
          -0.045678339899 -3.2867455482 1.2143257663e-05 2.146884203 -9.7232275009 8.6242613406e-07
          0.030942676589 -6.4275884628 4.5618403419e-06 -0.061228357255 -4.6951937675 -0.068142600358
          3.890614748 -11.565917015 -0.37907290459 11.088848114 -12.247466087 0.63751256466
          0 0 0 0.92773038149 -7.9334030151 0.19416502118
          0.012212961912 -0.87661069632 0.034782268107 -0.067922726274 -4.7678670883 -0.03651561588
          3.4288065434 -9.7123413086 0.41522398591 9.1773824692 -11.947360992 0.57103228569
          3.8819508553 -11.585547447 -0.18371281028 12.149151802 -14.219026566 -0.63210749626
          0 0 0 0.08122625947 -4.5725369453 0.14175248146
          12.153446198 -14.268770218 -0.31510952115 -0.028052225709 -0.91516327858 0.012912984006
          10.126587868 -13.918321609 -0.5638282299 5.4364023209 -11.588226318 0.21001182497
          0 0 0 -0.041052874178 -3.2649722099 0.021598279476
          10.130846977 -13.969182014 -0.28096586466 -0.024691836908 -0.94436764717 0.0058949990198
          2.1679573059 -9.7331066132 0.1936930865 -0.0081602809951 -6.4514770508 0.28247267008
          7.2927002907 -11.69849968 0.49909991026 -0.070541478693 -4.7900533676 1.3551891243e-05
          3.857830286 -11.596738815 -1.2254590729e-06 -0.0065016099252 -1.9372293949 0.043301433325
          1.1950930357 -9.8060188293 -0.35808652639 -0.060454379767 -1.9856908321 0.018621983007
          8.1092309952 -13.654825211 -0.49059835076 0.24060371518 -8.2760801315 -0.49765083194
          12.155510902 -14.285007477 -6.9414559221e-06 0 0 0
          1.2207404375 -9.8345546722 -0.20403586328 10.133036613 -13.985276222 -5.8506416281e-06
          -0.024770630524 -0.95207494497 2.6753423299e-06 8.1127271652 -13.706009865 -0.24395468831
          -0.057425610721 -2.0284025669 0.010791497305 0.28295016289 -8.266295433 -0.21309812367
          0.88157433271 -7.9224567413 0.49582123756 1.2425048351 -9.8369417191 2.3505235731e-06
          -0.030206726864 -6.3620877266 -0.048123121262 -0.067921496928 -4.7678790092 0.036539558321
          2.6963057518 -11.584074974 -0.38096114993 8.1149864197 -13.72166729 -4.6858290261e-06
          5.4448699951 -11.559193611 0.42400324345 3.8819489479 -11.585550308 0.18371035159
          0.33628493547 -8.2639570236 6.5471190283e-06 -0.057313013822 -2.0427012444 6.0048628256e-06
          -0.029073182493 -3.1996669769 0.043130427599 12.153443336 -14.268772125 0.31509560347
          6.0427584648 -13.444670677 -0.4179071784 -0.044460173696 -6.4715948105 -0.055157542229
          -0.089031711221 -3.2443971634 0.025852603838 2.7004785538 -11.596169472 -0.19355283678
          2.1779251099 -9.7375259399 0.44031879306 -0.04916678369 -6.4952816963 0.51167726517
          0 0 0 -0.085851982236 -3.2961542606 0.01480371505
          10.13084507 -13.969183922 0.28095409274 -0.024691712111 -0.9443667531 -0.0058897156268
          6.0442070961 -13.484336853 -0.20646694303 -0.052718035877 -6.4719638824 9.6523008324e-06
          2.6952939034 -11.608809471 1.6048214491e-07 1.2207392454 -9.8345575333 0.20404039323
          6.0430321693 -13.489981651 -3.4823019632e-06 -0.086626268923 -3.3143663406 8.9094774012e-06
          8.1127243042 -13.706011772 0.24394525588 -0.057425506413 -2.0284028053 -0.010779610835
          0.28294825554 -8.2662982941 0.21310535073 -0.061226893216 -4.69520998 0.068160943687
          3.8906111717 -11.565921783 0.3790704906 4.2784137726 -13.410762787 -0.35307008028
          12.149147034 -14.21903038 0.63209336996 0 0 0
          -0.099163979292 -4.7002034187 0.039875812829 -0.028049230576 -0.91516065598 -0.012907031924
          10.126583099 -13.918326378 0.56381630898 -0.044457264245 -6.4716010094 0.055175285786
          2.7004771233 -11.596172333 0.1935530901 4.2287745476 -13.388449669 -0.182808429
          0.57398623228 -10.1242342 -0.44595059752 -0.099384047091 -4.7632193565 0.020653199404
          -0.085852064192 -3.2961568832 -0.014786791988 6.0442037582 -13.48433876 0.20645993948
          0.61268401146 -10.130137444 -0.19465690851 1.4935101271 -11.536254883 -0.38850706816
          -0.053027004004 -8.1215543747 -0.018671315163 13.202715874 -16.301908493 -0.62928617001
          0 0 0 11.071674347 -16.002433777 -0.56297838688
          1.1950905323 -9.8060245514 0.35809075832 -0.060451991856 -1.9856892824 -0.018610671163
          8.1092252731 -13.654829979 0.49058869481 -0.086635686457 -8.2420797348 -0.075275301933
          1.5045517683 -11.5427742 -0.18533161283 0.24060106277 -8.2760858536 0.49765858054
          13.204220772 -16.350915909 -0.31402665377 0 0 0
          -0.10142035037 -4.784529686 9.7648626252e-06 4.1538534164 -13.350107193 -2.1306066174e-06
          -0.065138913691 -0.91539686918 0.052560310811 11.07238102 -16.052009583 -0.28110638261
          -0.048801727593 -0.94091254473 0.022277522832 0.69346135855 -10.203034401 3.1364118058e-06
          8.9385738373 -15.732896805 -0.49602097273 -0.087458565831 -8.2401170731 5.7567008298e-06
          1.5199944973 -11.553043365 1.3575564708e-06 13.204732895 -16.367002487 -8.4368275566e-06
          0 0 0 -0.10697957873 -1.9719555378 0.072337053716
          8.9369039536 -15.78378582 -0.2473949343 11.07307148 -16.068386078 -7.285308584e-06
          -0.030205344781 -6.3620963097 0.048138935119 2.6963028908 -11.584080696 0.38096117973
          -0.047733638436 -0.94760847092 1.9877511477e-06 -0.093525573611 -2.0090179443 0.03788517043
          6.0427522659 -13.444676399 0.41790002584 -0.089030399919 -3.2443988323 -0.025837110355
          -0.10657904297 -6.3370089531 0.054861709476 3.1309044361 -13.448466301 -0.39205530286
          -0.099383421242 -4.7632231712 -0.020634407178 4.2287726402 -13.38845253 0.18280415237
          -0.11099957675 -6.410323143 0.030280593783 3.1259410381 -13.427080154 -0.18486489356
          0.61268299818 -10.130140305 0.19466340542 8.9376869202 -15.80046463 -6.0577904151e-06
          -0.089336171746 -2.0208704472 4.3382142394e-06 6.770052433 -15.478682518 -0.42392301559
          -0.086635522544 -8.2420816422 0.075287520885 1.5045505762 -11.542777061 0.18533444405
          13.204216957 -16.350917816 0.31400972605 0 0 0
          -0.12610888481 -3.2028055191 0.087879210711 6.7738938332 -15.532299995 -0.21263647079
          11.072378159 -16.05201149 0.28109177947 -0.11713524908 -3.2477164268 0.046370103955
          -0.11423424631 -6.4389276505 8.5682577264e-06 3.1165630817 -13.408445358 -7.2813850238e-07
          -0.048801541328 -0.94091200829 -0.022273626179 8.9369001389 -15.783788681 0.24738276005
          6.7816390991 -15.551529884 -4.7412536333e-06 -0.11467166245 -3.2626757622 6.3006873461e-06
          4.2784099579 -13.410768509 0.35306569934 0.83452862501 -11.754798889 -0.42539849877
          -0.09352530539 -2.0090177059 -0.037876565009 -0.099163532257 -4.7002077103 -0.039859514683
          -0.30007410049 -10.318295479 -0.28124430776 0.87058371305 -11.765697479 -0.18233062327
          0.57398366928 -10.124239922 0.44595739245 -0.2947242856 -10.366776466 -0.15308338404
          -0.11099878699 -6.4103264809 -0.030263982713 3.1259396076 -13.427083969 0.18486352265
          1.4935076237 -11.536260605 0.38851004839 -0.053028527647 -8.1215591431 0.018682111055
          -0.12283607572 -4.6307401657 0.099648855627 4.6207270622 -15.243377686 -0.35084563494
          13.202709198 -16.301912308 0.62926906347 0 0 0
          11.071668625 -16.002437592 0.56296360493 -0.11766695976 -4.6798491478 0.053343951702
          0.8744315505 -11.782230377 2.2571041427e-06 -0.12587459385 -8.1631383896 0.043550331146
          2.1122686863 -13.483391762 -0.40059426427 4.6106648445 -15.272949219 -0.19350939989
          -0.06513671577 -0.91539514065 -0.052556004375 -0.31335628033 -10.367617607 3.9581368583e-06
          6.7738900185 -15.532302856 0.21262690425 -0.11713493615 -3.2477169037 -0.046357732266
          2.0836064816 -13.465200424 -0.18088391423 -0.1338442266 -8.2394714355 0.028794333339
          8.9385671616 -15.732901573 0.49600860476 -0.11721936613 -4.6981472969 7.2078219091e-06
          4.5862765312 -15.288738251 -3.1712274904e-06 -0.10697717965 -1.9719536304 -0.072328679264
          2.040823698 -13.437942505 5.3273095091e-07 14.248305321 -18.494140625 -0.62619137764
          0 0 0 -0.14290520549 -8.2744951248 6.6641887315e-06
          14.248847961 -18.540838242 -0.31287947297 0 0 0
          0.87058269978 -11.76570034 0.18233554065 12.013717651 -18.196897507 -0.56384760141
          -0.10657896847 -6.3370132446 -0.054846964777 3.1309018135 -13.448472977 0.39205396175
          -0.098712071776 -0.88195294142 0.08884844929 -0.29472410679 -10.366779327 0.15309172869
          12.013354301 -18.243644714 -0.28192549944 -0.070893339813 -0.90484780073 0.037157557905
          6.7700452805 -15.478687286 0.42391318083 14.248497009 -18.556343079 -1.0149071386e-05
          -0.11766660959 -4.6798505783 -0.053329940885 9.781993866 -17.926464081 -0.5029668808
          -0.14979635179 -1.8983865976 0.12350672483 4.6106610298 -15.272951126 0.1935031414
          0 0 0 3.6542127132 -15.281827927 -0.36577013135
          -0.098839864135 -6.2609796524 0.10694339871 -0.12610729039 -3.2028045654 -0.087867729366
          -0.12748789787 -1.9307210445 0.063749238849 9.7788953781 -17.974094391 -0.25122895837
          12.013224602 -18.259386063 -8.9354180091e-06 2.0836062431 -13.465203285 0.18088510633
          -0.098956108093 -6.3095941544 0.057382233441 3.6355588436 -15.277415276 -0.16038644314
          -0.13384367526 -8.2394733429 -0.028781400993 -0.068761348724 -0.91077357531 1.3543927935e-06
          -0.12747384608 -11.746779442 -0.35248625278 9.7785348892 -17.990333557 -7.6397745943e-06
          0.83452612162 -11.754804611 0.42540308833 -0.12097330391 -1.9398634434 2.9722973522e-06
          -0.1005679965 -6.3312730789 6.8896997618e-06 -0.13657207787 -11.775835037 -0.17504775524
          3.5970253944 -15.273784637 -1.4579809431e-06 -0.30007493496 -10.318302155 0.28125393391
          14.248844147 -18.540840149 0.31285911798 7.5334558487 -17.675188065 -0.43932887912
          -0.033065497875 -10.027917862 0.073185972869 0 0 0
          -0.16522495449 -3.0830359459 0.1478061825 1.1259118319 -13.497832298 -0.33314499259
          -0.15044026077 -3.1232173443 0.07782573998 7.5306444168 -17.727128983 -0.21868132055
          12.013350487 -18.243646622 0.28190758824 -0.064449973404 -10.127246857 0.0092295492068
          1.1161583662 -13.51883316 -0.15965642035 -0.070893071592 -0.90484732389 -0.037154879421
          -0.12283533067 -4.6307401657 -0.099635951221 4.6207208633 -15.243382454 0.3508387506
          -0.13090886176 -11.806373596 2.5586773518e-06 -0.12587542832 -8.1631402969 -0.043538104743
          2.1122667789 -13.483397484 0.40059551597 7.5328383446 -17.746007919 -6.2773297032e-06
          9.7788925171 -17.974098206 0.25121361017 -0.071781024337 -10.149309158 5.1461611292e-06
          -0.12748740613 -1.9307204485 -0.063743285835 -0.14530281723 -3.1337554455 4.3704530981e-06
          -0.09895568341 -6.3095955849 -0.057368792593 3.6355581284 -15.277417183 0.16038358212
          1.0934535265 -13.518471718 1.6804635834e-06 2.5704290867 -15.264691353 -0.35481458902
          -0.05404644832 -8.0346403122 0.10931162536 2.5431630611 -15.239758492 -0.17348305881
          -0.059230335057 -8.0875606537 0.059273697436 14.248298645 -18.49414444 0.62617081404
          0 0 0 -0.13656927645 -11.775840759 0.1750549376
          -0.14233878255 -4.4722366333 0.15953688323 5.242667675 -17.395120621 -0.35093674064
          -0.13780477643 -4.5159454346 0.083928272128 12.013710976 -18.196903229 0.5638294816
          -0.098710276186 -0.88195157051 -0.088845409453 5.2491350174 -17.464120865 -0.18302974105
          7.5306406021 -17.72713089 0.21866868436 -0.064450070262 -10.127249718 -0.0092194061726
          -0.15043972433 -3.1232171059 -0.077817127109 1.1161569357 -13.518836021 0.15965972841
          2.5126190186 -15.207476616 5.8260422264e-08 -0.06117316708 -8.1109495163 5.9263343246e-06
          9.7819862366 -17.926469803 0.50295132399 -0.14979419112 -1.8983845711 -0.12350080907
          3.6542100906 -15.281833649 0.36576762795 -0.13491286337 -4.5281453133 5.1059978432e-06
          -0.098839893937 -6.2609801292 -0.10693095624 5.2609558105 -17.504741669 -4.7857538448e-06
          15.285272598 -20.786792755 -0.62277489901 0 0 0
          -0.1274753809 -11.74678421 0.35249310732 2.5431623459 -15.239761353 0.17348308861
          0 0 0 12.954071045 -20.491643906 -0.56407278776
          -4.2626797381e-07 -11.663768768 0.0022992189042 -0.059230085462 -8.087562561 -0.059262149036
          -0.12522414327 -0.81292408705 0.12288907915 0.49875259399 -13.761901855 -0.36538600922
          15.285676956 -20.831018448 -0.31145483255 7.5334486961 -17.675193787 0.43931609392
          12.953787804 -20.535701752 -0.28206583858 -0.085839390755 -0.83446657658 0.049826409668
          -0.033066835254 -10.027920723 -0.073176749051 -0.069815538824 -11.790559769 -0.030988803133
          -0.16522318125 -3.0830340385 -0.14779788256 4.1345710754 -17.099205017 -0.33750921488
          -0.13780426979 -4.5159454346 -0.083918206394 1.1259096861 -13.497836113 0.33314865828
          -0.08944182843 -6.0720095634 0.15142568946 5.2491307259 -17.464122772 0.18302005529
          0.47527676821 -13.757780075 -0.11520988494 -0.087636843324 -6.116754055 0.082832224667
          4.0383763313 -17.016973495 -0.17548489571 10.628553391 -20.224380493 -0.50685042143
          15.285230637 -20.845783234 -1.2084739865e-05 -0.18413846195 -1.7729535103 0.16910609603
          0 0 0 10.625734329 -20.268438339 -0.25304859877
          -0.15402589738 -1.7988820076 0.085354089737 12.953365326 -20.550479889 -1.080264974e-05
          1.5628868341 -15.280684471 -0.36136975884 -0.075629524887 -11.796597481 4.3364880185e-06
          0.35319018364 -13.706244469 2.1181988359e-06 0.0051274015568 -9.8505353928 0.10177256912
          -0.081451036036 -0.83988821507 8.3081823732e-07 1.4587960243 -15.232438087 -0.15120927989
          3.8645482063 -16.89266777 -1.7075019514e-06 -0.0031887148507 -9.9151802063 0.052778918296
          -0.086861260235 -6.1295371056 5.1352735682e-06 2.5704276562 -15.264697075 0.35481479764
          10.624271393 -20.283313751 -9.4290517154e-06 -0.054046995938 -8.0346412659 -0.10930082947
          -0.14268167317 -1.8102791309 1.8972151565e-06 8.298532486 -19.981092453 -0.44906419516
          15.285673141 -20.831020355 0.31143060327 1.3282124996 -15.14775753 1.3287971115e-06
          -0.20991849899 -2.9028623104 0.20801588893 -0.14233770967 -4.472234726 -0.15952731669
          -0.0056649907492 -9.9504489899 4.8689544201e-06 5.2426590919 -17.395126343 0.35092672706
          0 0 0 8.2926616669 -20.026184082 -0.22284008563
          -0.1882314831 -2.9267501831 0.10998093337 12.953783989 -20.535705566 0.28204417229
          -0.069815933704 -11.79056263 0.03099651821 0.47527575493 -13.757781982 0.11521483213
          -0.08583907038 -0.83446615934 -0.049824729562 4.0383763313 -17.01697731 0.17548133433
          -0.087636366487 -6.116754055 -0.082822203636 10.625729561 -20.268442154 0.25302964449
          8.2897281647 -20.041660309 -7.9762739915e-06 3.0693278313 -17.044050217 -0.39022284746
          -0.0040031103417 -7.8572525978 0.15755900741 -0.18865698576 -2.930062294 2.8529852898e-06
          -0.15402530134 -1.7988814116 -0.085350245237 -0.0083574615419 -7.8966569901 0.078867614269
          1.4587959051 -15.232440948 0.15121197701 3.0243830681 -17.02404213 -0.15596362948
          -0.0031884957571 -9.91518116 -0.052769370377 5.9590411186 -19.744941711 -0.38523536921