<?xml version="1.0"?>
<VTKFile type="UnstructuredGrid" version="0.1" byte_order="LittleEndian" header_type="UInt32" compressor="vtkZLibDataCompressor">
  <UnstructuredGrid>
    <Piece NumberOfPoints="6405" NumberOfCells="4800">
      <PointData>
        <DataArray type="Float32" Name="DISPLACEMENT" NumberOfComponents="3" ComponentName0="X-DISPLACEMENT" ComponentName1="Y-DISPLACEMENT" ComponentName2="Z-DISPLACEMENT" format="ascii" RangeMin="0" RangeMax="1280.7240787">
          0 0 0 0 0 0
          10.081122398 -6.1330852509 -4.7166452408 0 0 0
          7.208963871 -3.5817494392 -4.0850467682 0 0 0
          9.0915498734 -6.5295219421 -1.8914682865 6.2266602516 -3.8861451149 -1.6685239077
          0 0 0 18.098833084 -9.9135751724 -4.9935827255
          0 0 0 17.719852448 -10.408387184 -2.5993564129
          14.538192749 -7.7721161842 -4.6046147346 0 0 0
          0 0 0 9.087688446 -6.7046394348 -5.9332005975e-08
          6.0402708054 -2.3809423447 -3.6794993877 6.1932435036 -3.9606206417 -6.3067041367e-08
          14.152728081 -8.1256561279 -2.3515765667 5.1653943062 -2.6431992054 -1.4992017746
          17.486228943 -10.55355835 -1.9849899502e-07 11.985001564 -5.9076728821 -4.1517395973
          0 0 0 13.939953804 -8.2637119293 -1.9409310426e-07
          11.61719799 -6.231566906 -2.1349322796 0 0 0
          25.781385422 -14.17646122 -4.9361958504 0 0 0
          5.1348662376 -2.7024216652 -5.6133661275e-08 0 0 0
          0 0 0 9.0915498734 -6.5295219421 1.8914681673
          21.692354202 -11.960108757 -4.529384613 25.745132446 -14.534666061 -2.5269293785
          5.0981645584 -1.6661245823 -3.2110989094 6.2266602516 -3.8861451149 1.6685237885
          21.670488358 -12.296133041 -2.3094174862 4.3218026161 -1.9321979284 -1.3194857836
          11.417767525 -6.3361034393 -1.7786953777e-07 17.71985054 -10.408387184 2.5993561745
          0 0 0 0 0 0
          10.060855865 -4.6156945229 -3.6769993305 18.245012283 -10.01145649 -4.1213698387
          25.666196823 -14.680828094 -4.0142296598e-07 14.152728081 -8.1256561279 2.3515763283
          18.208597183 -10.343925476 -2.1034154892 5.1653938293 -2.6431994438 1.4992016554
          21.597084045 -12.42064476 -3.7532021224e-07 9.7251062393 -4.9487504959 -1.890515089
          4.2954683304 -1.9830863476 -5.1274639645e-08 0 0 0
          33.477237701 -18.779930115 -4.7376041412 0 0 0
          28.810731888 -16.58224678 -4.3413591385 11.61719799 -6.231566906 2.1349318027
          33.55223465 -19.094549179 -2.3966372013 10.081122398 -6.133084774 4.7166452408
          0 0 0 0 0 0
          9.5498952866 -5.0480566025 -1.6189061114e-07 18.138917923 -10.456764221 -3.4372212099e-07
          4.2770915031 -1.1910626888 -2.7373535633 28.891857147 -16.897106171 -2.1903996468
          7.208963871 -3.5817494392 4.0850462914 15.329672813 -8.4247760773 -3.6571786404
          0 0 0 25.745132446 -14.534666061 2.5269286633
          3.607434988 -1.4619715214 -1.1265226603 15.291183472 -8.7724676132 -1.8713079691
          21.67048645 -12.296133041 2.3094167709 4.3218026161 -1.9321979284 1.3194856644
          24.589645386 -14.605423927 -3.9353852272 8.3904857635 -3.70510149 -3.1613349915
          33.548969269 -19.208135605 -6.531413419e-07 18.098833084 -9.9135751724 4.9935822487
          0 0 0 0 0 0
          24.66557312 -14.930473328 -1.9878634214 14.538192749 -7.7721161842 4.6046142578
          28.89424324 -17.009790421 -5.9865072899e-07 8.0930833817 -4.0502171516 -1.6260026693
          6.0402703285 -2.3809423447 3.6794993877 3.5838885307 -1.5148797035 -4.7560678951e-08
          15.225550652 -8.8823661804 -3.1292168501e-07 18.208597183 -10.343925476 2.1034147739
          9.7251062393 -4.9487504959 1.8905147314 24.664693832 -15.041753769 -5.4247419712e-07
          11.98500061 -5.9076728821 4.1517391205 7.9420981407 -4.1505322456 -1.4833267414e-07
          20.805585861 -12.921993256 -3.4959673882 33.55223465 -19.094549179 2.3966360092
          25.781385422 -14.17646122 4.9361948967 0 0 0
          41.1146698 -23.920560837 -4.5963177681 0 0 0
          0 0 0 12.772624016 -7.2166781425 -3.161043644
          20.87260437 -13.262901306 -1.7680169344 41.198810577 -24.223361969 -2.3045163155
          35.822589874 -21.745109558 -4.1922636032 28.891857147 -16.897106171 2.1903984547
          3.5114369392 -0.86199378967 -2.2672448158 0 0 0
          21.692354202 -11.960108757 4.5293836594 5.0981645584 -1.6661245823 3.211098671
          12.733672142 -7.5795211792 -1.6178241968 3.607434988 -1.4619715214 1.126522541
          2.9518723488 -1.1340286732 -0.93324774504 15.291183472 -8.7724676132 1.8713072538
          35.909446716 -22.055187225 -2.1011614799 24.66557312 -14.930473328 1.9878622293
          20.870595932 -13.375840187 -4.8915887874e-07 41.222026825 -24.327756882 -9.3224167586e-07
          6.8624157906 -3.0536594391 -2.6331694126 8.0930833817 -4.0502171516 1.6260024309
          0 0 0 30.877456665 -19.783998489 -3.7831146717
          10.060854912 -4.6156945229 3.6769990921 18.245012283 -10.01145649 4.1213693619
          12.676031113 -7.6922721863 -2.8354767778e-07 35.933197021 -22.161083221 -8.4408162593e-07
          2.9314818382 -1.1889693737 -4.6105270712e-08 6.6088318825 -3.404708147 -1.3535448313
          30.964057922 -20.103656769 -1.896338582 33.477233887 -18.779932022 4.7376027107
          0 0 0 17.372817993 -11.553529739 -3.0257515907
          28.810731888 -16.58224678 4.3413581848 6.4826169014 -3.5072674751 -1.368863991e-07
          17.429456711 -11.909406662 -1.5312688351 30.986328125 -20.212352753 -7.5973230196e-07
          4.2770915031 -1.191062808 2.7373535633 20.87260437 -13.262901306 1.7680159807
          26.295553207 -18.073051453 -3.3525559902 41.198810577 -24.223361969 2.3045144081
          10.429151535 -6.3109898567 -2.6439490318 15.32967186 -8.4247760773 3.6571781635
          0 0 0 12.733672142 -7.5795211792 1.6178236008
          26.376945496 -18.405780792 -1.6818287373 2.9518723488 -1.1340287924 0.93324762583
          10.391943932 -6.6833734512 -1.3529945612 35.909446716 -22.055187225 2.101159811
          24.589645386 -14.605423927 3.9353840351 8.3904857635 -3.70510149 3.161334753
          48.653873444 -29.674459457 -4.5006537437 0 0 0
          17.426908493 -12.025507927 -4.3895605017e-07 42.701248169 -27.532926559 -4.0860776901
          48.724765778 -29.982057571 -2.2496221066 0 0 0
          2.7795176506 -0.62971246243 -1.804172039 42.773181915 -27.844820023 -2.0433447361
          26.397050858 -18.517150879 -6.7938594839e-07 2.3316390514 -0.90068876743 -0.74249595404
          6.6088318825 -3.4047083855 1.3535444736 10.342909813 -6.7988548279 -2.5695351269e-07
          30.964057922 -20.103656769 1.8963371515 37.048789978 -25.600244522 -3.671412468
          5.4176278114 -2.5858063698 -2.1028289795 48.750434875 -30.084747314 -1.2229115782e-06
          0 0 0 5.2116112709 -2.93846035 -1.0803472996
          37.122276306 -25.918308258 -1.835621953 42.797897339 -27.949455261 -1.0995794355e-06
          2.3148162365 -0.95673954487 -4.2835793579e-08 20.805583954 -12.921993256 3.4959664345
          22.036710739 -16.635726929 -2.9008953571 41.1146698 -23.920562744 4.5963158607
          0 0 0 14.193488121 -10.481194496 -2.5367221832
          17.429456711 -11.909406662 1.5312678814 12.772624016 -7.2166786194 3.1610429287
          35.822589874 -21.745109558 4.1922621727 3.5114367008 -0.86199384928 2.2672448158
          14.238848686 -10.847419739 -1.2838118076 22.108802795 -16.98075676 -1.4558477402
          26.376945496 -18.405780792 1.6818273067 10.391943932 -6.6833734512 1.3529940844
          37.146316528 -26.025442123 -9.8261205039e-07 5.1103653908 -3.0422267914 -1.2303860331e-07
          31.712341309 -23.896165848 -3.2441842556 8.2217702866 -5.641960144 -2.1181137562
          6.8624153137 -3.0536596775 2.6331691742 48.724765778 -29.982057571 2.2496194839
          30.877456665 -19.784000397 3.7831132412 0 0 0
          22.12647438 -17.095373154 -6.0275260694e-07 14.236210823 -10.966611862 -3.9097079707e-07
          31.783100128 -24.223106384 -1.6225723028 42.773181915 -27.84482193 2.0433423519
          8.1888046265 -6.0188922882 -1.0835256577 2.3316390514 -0.90068882704 0.74249589443
          17.372816086 -11.553529739 3.0257508755 31.805826187 -24.332612991 -8.7046424824e-07
          37.122276306 -25.918308258 1.8356199265 5.2116107941 -2.9384605885 1.0803470612
          8.1489524841 -6.1361255646 -2.2654766951e-07 56.079227448 -36.094753265 -4.4258823395
          0 0 0 56.139598846 -36.408420563 -2.2107889652
          26.2955513 -18.073051453 3.3525547981 49.445198059 -33.989276886 -4.0030617714
          10.429150581 -6.3109903336 2.643948555 18.036237717 -15.470434189 -2.433242321
          2.0690050125 -0.46752071381 -1.3475161791 14.238847733 -10.847419739 1.2838110924
          22.108802795 -16.98075676 1.4558465481 0 0 0
          49.50586319 -34.304180145 -2.0012106895 18.096805573 -15.824818611 -1.2213345766
          1.7332144976 -0.7368376255 -0.55446726084 26.669527054 -22.43753624 -2.8030641079
          11.188351631 -9.6645040512 -2.036493063 48.653873444 -29.674459457 4.5006513596
          0 0 0 42.701244354 -27.532928467 4.0860757828
          56.162055969 -36.512084961 -1.5065327261e-06 11.222887039 -10.036846161 -1.0305271149
          26.733812332 -22.77355957 -1.4022862911 2.7795174122 -0.62971252203 1.8041719198
          43.091773987 -32.09053421 -3.584597826 4.0255699158 -2.2557089329 -1.5741950274
          0 0 0 31.783100128 -24.223106384 1.6225705147
          8.1888046265 -6.0188922882 1.0835251808 49.527378082 -34.409015656 -1.345393116e-06
          18.111602783 -15.942276001 -5.2885877722e-07 43.153331757 -32.408130646 -1.7913864851
          3.869509697 -2.6080629826 -0.80843102932 1.7203353643 -0.79332482815 -3.8132650815e-08
          37.048786163 -25.600244522 3.6714105606 5.4176278114 -2.5858063698 2.1028287411
          26.754293442 -22.885679245 -7.6177587971e-07 11.220315933 -10.158080101 -3.4001794802e-07
          22.036708832 -16.635728836 2.900894165 43.174491882 -32.514625549 -1.1929430457e-06
          3.7934319973 -2.7122497559 -1.0682558127e-07 14.193488121 -10.481194496 2.536721468
          56.139598846 -36.408420563 2.2107858658 37.025722504 -30.408208847 -3.1591861248
          0 0 0 6.1024775505 -5.161690712 -1.5891141891
          37.085231781 -30.731197357 -1.5790567398 49.50586319 -34.304180145 2.0012080669
          1.7332143784 -0.73683768511 0.55446720123 18.096805573 -15.824818611 1.2213335037
          6.0759348869 -5.5403704643 -0.81268656254 31.712341309 -23.896165848 3.2441825867
          21.87666893 -21.229799271 -2.3501198292 26.733810425 -22.77355957 1.4022848606
          8.2217693329 -5.641960144 2.1181132793 11.222887039 -10.036846161 1.0305265188
          14.229867935 -14.559411049 -1.9551930428 21.93189621 -21.573337555 -1.1758098602
          37.10546875 -30.839191437 -1.0460000794e-06 43.153327942 -32.408130646 1.7913841009
          3.8695094585 -2.6080629826 0.80843085051 14.278010368 -14.920018196 -0.9813709259
          6.0456695557 -5.6584348679 -1.9315744737e-07 63.386646271 -43.205936432 -4.3558712006
          0 0 0 1.3723847866 -0.36008998752 -0.89571279287
          21.949476242 -21.687829971 -6.5688419681e-07 31.230236053 -28.953977585 -2.7250492573
          56.06098175 -41.137039185 -3.9291906357 56.079227448 -36.094753265 4.4258794785
          0 0 0 0 0 0
          14.28976059 -15.039542198 -4.5199638521e-07 8.3021631241 -9.0663146973 -1.5304222107
          63.442192078 -43.522926331 -2.1759626865 31.28484726 -29.283153534 -1.3622225523
          56.116348267 -41.453342438 -1.9646065235 49.445198059 -33.989276886 4.0030593872
          1.1486495733 -0.62794756889 -0.36852443218 18.036237717 -15.470435143 2.4332411289
          2.0690050125 -0.46752077341 1.3475160599 8.3268699646 -9.441906929 -0.77432709932
          37.085231781 -30.731197357 1.5790547132 6.0759348869 -5.5403704643 0.81268614531
          49.00994873 -39.273635864 -3.5096199512 26.669525146 -22.437538147 2.803062439
          11.188350677 -9.6645040512 2.0364923477 0 0 0
          2.6671016216 -2.0357019901 -1.0478988886 63.461795807 -43.627372742 -1.7735845859e-06
          1.139952898 -0.68455684185 -3.2700707919e-08 31.303331375 -29.393016815 -9.0343729653e-07
          49.064743042 -39.590301514 -1.7541104555 43.091770172 -32.09053421 3.5845954418
          56.135486603 -41.558368683 -1.5713156927e-06 4.0255699158 -2.2557089329 1.5741947889
          8.3246297836 -9.5643062592 -2.8444532063e-07 2.5624184608 -2.387260437 -0.53801608086
          21.93189621 -21.573337555 1.1758085489 14.278010368 -14.920018196 0.98137003183
          17.283037186 -20.266946793 -1.8884226084 49.083435059 -39.696269989 -1.3805862409e-06
          2.5116405487 -2.4914975166 -8.7319264708e-08 17.327810287 -20.61598587 -0.94483548403
          42.229938507 -37.619876862 -3.0866487026 0 0 0
          4.0400624275 -4.8381791115 -1.0593469143 63.442192078 -43.522926331 2.1759591103
          1.1486494541 -0.6279476285 0.36852437258 31.28484726 -29.283153534 1.3622207642
          42.282272339 -37.939422607 -1.5428689718 37.025722504 -30.408210754 3.159183979
          56.116348267 -41.453342438 1.9646033049 25.672517776 -27.734443665 -2.2825639248
          10.563203812 -13.879302025 -1.4706147909 6.1024775505 -5.1616911888 1.5891138315
          4.0215368271 -5.2173480988 -0.54165816307 8.3268699646 -9.441906929 0.77432656288
          25.720033646 -28.069234848 -1.1411002874 10.598885536 -14.243740082 -0.73811483383
          17.342063904 -20.732301712 -5.5138775679e-07 21.87666893 -21.229801178 2.3501186371
          49.064743042 -39.590301514 1.7541077137 14.229867935 -14.559411049 1.9551920891
          42.300048828 -38.046157837 -1.1963344377e-06 2.5624182224 -2.387260437 0.53801590204
          4.0011825562 -5.3357362747 -1.5520313923e-07 25.736091614 -28.180894852 -7.6490624679e-07
          10.607569695 -14.364567757 -3.7139017195e-07 5.4948911667 -8.6581268311 -1.0214031935
          35.704124451 -36.183307648 -2.6583719254 63.386646271 -43.205936432 4.3558673859
          0 0 0 17.327810287 -20.61598587 0.94483435154
          1.3723847866 -0.36009007692 0.89571273327 5.5107579231 -9.0353250504 -0.51673269272
          31.230234146 -28.953977585 2.7250473499 56.06098175 -41.137042999 3.9291875362
          35.752025604 -36.506851196 -1.3288872242 70.57346344 -51.016723633 -4.2844295502
          0 0 0 8.3021621704 -9.0663156509 1.5304217339
          70.627693176 -51.333927155 -2.1405882835 0.68419498205 -0.298656106 -0.44708043337
          62.553779602 -48.984580994 -3.8578345776 42.282272339 -37.939426422 1.5428665876
          0 0 0 4.0215368271 -5.2173480988 0.54165786505
          62.607448578 -49.300193787 -1.9292393923 0.57237493992 -0.56557017565 -0.18393388391
          25.720033646 -28.069236755 1.1410987377 10.598884583 -14.243740082 0.73811405897
          49.00994873 -39.273635864 3.5096173286 5.5091023445 -9.1583147049 -2.2374305786e-07
          35.768264771 -36.614788055 -1.0165055073e-06 2.6671016216 -2.0357022285 1.0478987694
          20.311548233 -26.749519348 -1.8333001137 1.3288029432 -1.9094390869 -0.52345949411
          54.808937073 -47.156764984 -3.4397852421 12.839836121 -19.536916733 -1.4207112789
          70.645744324 -51.438392639 -2.0095124e-06 0 0 0
          20.350545883 -27.088766098 -0.91651970148 62.625476837 -49.404899597 -1.7658428533e-06
          0.56799638271 -0.62219321728 -2.5240211698e-08 54.860565186 -47.471385956 -1.7194398642
          1.2762851715 -2.2603526115 -0.26872053742 12.873543739 -19.889667511 -0.71081912518
          17.283037186 -20.2669487 1.8884215355 20.363721848 -27.201904297 -6.260512464e-07
          6.9925217628 -13.409174919 -0.98216295242 5.5107579231 -9.0353250504 0.51673227549
          29.404611588 -34.969917297 -2.2243974209 54.877925873 -47.576599121 -1.5334115915e-06
          42.229938507 -37.619876862 3.0866463184 35.752025604 -36.506851196 1.3288851976
          12.88427639 -20.007238388 -4.4216574224e-07 1.2508803606 -2.3645391464 -6.4268377287e-08
          4.0400624275 -4.8381795883 1.0593466759 70.627693176 -51.333927155 2.1405842304
          47.326381683 -45.534427643 -3.0204582214 7.0160355568 -13.775814056 -0.49293741584
          2.0119411945 -4.6513662338 -0.52960681915 29.446416855 -35.297454834 -1.1119923592
          25.672517776 -27.734443665 2.2825624943 10.563203812 -13.879302979 1.4706139565
          0 0 0 2.0024373531 -5.0305871964 -0.27076780796
          62.607448578 -49.300197601 1.9292359352 0.57237493992 -0.56557023525 0.1839338243
          47.374771118 -45.850307465 -1.5099574327 7.0217428207 -13.897396088 -2.8528327789e-07
          29.460584641 -35.406665802 -8.4157858282e-07 20.350545883 -27.088766098 0.91651844978
          47.391029358 -45.955776215 -1.3090829043e-06 1.9922078848 -5.1490755081 -1.1075039907e-07
          54.860561371 -47.471385956 1.7194368839 1.2762851715 -2.2603526115 0.26872038841
          12.873543739 -19.889667511 0.71081829071 5.4948911667 -8.6581277847 1.0214027166
          35.704124451 -36.183307648 2.658370018 40.087081909 -44.122245789 -2.5980436802
          70.57346344 -51.016723633 4.2844257355 0 0 0
          2.7359535694 -8.4205932617 -0.51098436117 0.68419492245 -0.2986561954 0.44708037376
          62.553779602 -48.984584808 3.8578310013 7.0160355568 -13.77581501 0.49293684959
          29.446416855 -35.297454834 1.1119906902 40.130935669 -44.440578461 -1.2988595963
          15.10426712 -25.994224548 -1.3789770603 2.743701458 -8.7985076904 -0.25849455595
          2.0024373531 -5.0305871964 0.27076759934 47.374771118 -45.850311279 1.5099548101
          15.133934021 -26.336696625 -0.68939065933 23.296262741 -33.98204422 -1.7854067087
          8.5033950806 -19.026569366 -0.94906979799 77.636482239 -59.526420593 -4.2101206779
          0 0 0 68.925819397 -57.531429291 -3.7865331173
          20.311548233 -26.749521255 1.8332989216 1.328802824 -1.9094392061 0.5234593749
          54.808937073 -47.156764984 3.4397823811 8.5258569717 -19.381643295 -0.47483950853
          23.330762863 -34.312980652 -0.89254873991 12.839836121 -19.536916733 1.4207104445
          77.690895081 -59.841522217 -2.1036572456 0 0 0
          2.7428228855 -8.9217624664 -1.5600610936e-07 40.145664215 -44.546749115 -1.0903477232e-06
          6.6691040956e-06 -0.27865338326 -5.4857760006e-06 68.979362488 -57.844585419 -1.8937368393
          4.9410800784e-06 -0.54524511099 -2.2637932489e-06 15.143958092 -26.450925827 -4.8543176945e-07
          60.492675781 -55.739177704 -3.3721139431 8.5330085754 -19.5 -3.2834356034e-07
          23.342453003 -34.42332077 -6.6861076675e-07 77.7082901 -59.945301056 -2.201749794e-06
          0 0 0 1.0639407265e-05 -1.8682605028 -7.4493073043e-06
          60.542991638 -56.050628662 -1.685726881 68.997047424 -57.948444366 -1.9147339572e-06
          6.9925217628 -13.409174919 0.98216241598 29.404611588 -34.969917297 2.224395752
          4.7822090892e-06 -0.60186451674 -1.5610627457e-08 9.1758101917e-06 -2.2189369202 -3.786294883e-06
          47.326381683 -45.534427643 3.0204555988 2.0119411945 -4.6513662338 0.52960664034
          3.4818351269 -13.133404732 -0.4915638268 33.064743042 -42.925022125 -2.1718280315
          2.743701458 -8.7985076904 0.25849425793 40.130931854 -44.440578461 1.2988574505
          3.4934980869 -13.50116539 -0.24670533836 33.102874756 -43.246089935 -1.0858135223
          15.133934021 -26.336698532 0.68938970566 60.559780121 -56.154758453 -1.6397845002e-06
          8.6420823209e-06 -2.3230953217 -3.7663330232e-08 52.317565918 -54.149360657 -2.9576320648
          8.5258569717 -19.381643295 0.47483888268 23.330762863 -34.312980652 0.89254742861
          77.690895081 -59.841522217 2.1036529541 0 0 0
          1.218597572e-05 -4.5902667046 -8.9795194071e-06 52.363872528 -54.461074829 -1.4786413908
          68.979362488 -57.844585419 1.8937330246 1.0921465218e-05 -4.9694709778 -4.5728311306e-06
          3.4963226318 -13.623128891 -1.9197098311e-07 33.115684509 -43.353126526 -8.7810894911e-07
          4.9385453167e-06 -0.54524517059 2.2335107133e-06 60.542991638 -56.050632477 1.6857236624
          52.379329681 -54.565143585 -1.3756499584e-06 1.0445081898e-05 -5.0879793167 -6.2441259274e-08
          40.087081909 -44.122245789 2.5980415344 17.340530396 -33.218711853 -1.3424242735
          9.1734236776e-06 -2.2189369202 3.7114825773e-06 2.7359535694 -8.4205942154 0.51098406315
          10.009008408 -25.461568832 -0.92114043236 17.366926193 -33.552265167 -0.67109614611
          15.10426712 -25.994224548 1.3789762259 10.028932571 -25.806182861 -0.46050313115
          3.4934980869 -13.501166344 0.24670496583 33.102874756 -43.246089935 1.0858118534
          23.296262741 -33.98204422 1.7854055166 8.5033950806 -19.026569366 0.94906920195
          1.0547022612e-05 -8.3426265717 -1.0499600648e-05 44.378704071 -52.764762878 -2.5414645672
          77.636482239 -59.526420593 4.2101163864 0 0 0
          68.925819397 -57.531429291 3.7865293026 9.264759683e-06 -8.7207422256 -5.3222979659e-06
          17.375871658 -33.663486481 -4.9517609568e-07 4.2351117134 -18.725036621 -0.4750868082
          26.227384567 -41.945796967 -1.7420226336 44.420162201 -53.077888489 -1.270648241
          6.6482139118e-06 -0.27865347266 5.4515671764e-06 10.035663605 -25.921133041 -3.4207573663e-07
          52.363872528 -54.461074829 1.478638649 1.0927467883e-05 -4.9694709778 4.4504172365e-06
          26.258846283 -42.269363403 -0.87093967199 4.2463269234 -19.081371307 -0.23769426346
          60.492675781 -55.739177704 3.3721108437 8.8166652858e-06 -8.8440713882 -8.3544165363e-08
          44.434005737 -53.182323456 -1.1176759926e-06 1.0614128769e-05 -1.868260622 7.376792837e-06
          26.269420624 -42.377223969 -6.7059113462e-07 84.572189331 -68.729003906 -4.1331529617
          0 0 0 4.2498970032 -19.200153351 -2.0801071798e-07
          84.627235413 -69.040458679 -2.0652928352 0 0 0
          17.366926193 -33.552265167 0.67109519243 75.177322388 -66.771690369 -3.7145609856
          3.4818351269 -13.133404732 0.49156346917 33.064743042 -42.925022125 2.1718263626
          -0.68418180943 -0.29866084456 0.44706964493 10.028932571 -25.806182861 0.4605024457
          75.231277466 -67.081100464 -1.8577953577 -0.57236516476 -0.56557512283 0.18392942846
          52.317565918 -54.149360657 2.9576294422 84.644432068 -69.143051147 -2.343887445e-06
          9.2886357379e-06 -8.7207422256 5.1613578762e-06 66.063301086 -65.01499939 -3.3053231239
          -1.328781724 -1.9094501734 0.52344483137 44.420162201 -53.077892303 1.2706459761
          0 0 0 36.649730682 -51.58902359 -2.1228122711
          4.4449097913e-06 -13.042544365 -1.2236992916e-05 1.2174278709e-05 -4.5902671814 8.8653969215e-06
          -1.2762668133 -2.2603640556 0.26871308684 66.11315155 -65.322357178 -1.6523724794
          75.248939514 -67.183708191 -2.0138404579e-06 26.258846283 -42.269363403 0.87093836069
          3.0498615615e-06 -13.410648346 -6.1789041865e-06 36.685523987 -51.903972626 -1.0613691807
          4.2463269234 -19.081373215 0.23769386113 -0.56798690557 -0.62219822407 -5.0974953147e-09
          11.498152733 -32.677028656 -0.89652496576 66.129737854 -65.425109863 -1.6977878659e-06
          17.340530396 -33.218715668 1.3424233198 -1.2508630753 -2.3645508289 -8.579921662e-09
          2.5961496704e-06 -13.532727242 -9.3709822124e-08 11.515962601 -33.012397766 -0.44818407297
          36.697483063 -52.008964539 -8.6825980361e-07 10.009008408 -25.46157074 0.92113983631
          84.627235413 -69.040458679 2.0652880669 57.20557785 -63.458019257 -2.8966853619
          4.9865818024 -25.14500618 -0.46110531688 0 0 0
          -2.0119166374 -4.6513857841 0.52958917618 19.539518356 -41.185600281 -1.3092012405
          -2.0024151802 -5.0306072235 0.27075880766 57.250778198 -63.765045166 -1.448200345
          75.231277466 -67.081100464 1.8577913046 4.996576786 -25.490829468 -0.23051853478
          19.563625336 -41.511180878 -0.65454745293 -0.57236516476 -0.56557518244 -0.18392944336
          1.0571023267e-05 -8.3426265717 1.0355335689e-05 44.378704071 -52.764762878 2.5414624214
          11.521998405 -33.124229431 -3.2104048842e-07 4.2351117134 -18.725038528 0.47508642077
          26.227384567 -41.945800781 1.7420213223 57.265830994 -63.867549896 -1.3928073486e-06
          66.11315155 -65.322357178 1.6523690224 4.99995327 -25.60618782 -1.9343924862e-07
          -1.2762668133 -2.2603640556 -0.26871311665 -1.9921866655 -5.1490960121 -1.1682158352e-08
          3.105010137e-06 -13.410648346 5.9997191784e-06 36.685523987 -51.903972626 1.0613675117
          19.57172966 -41.619716644 -4.6502273676e-07 29.100101471 -50.625095367 -1.7016538382
          -7.6673095464e-06 -18.625343323 -1.4177519915e-05 29.129533768 -50.941822052 -0.85080635548
          -9.1651872935e-06 -18.982076645 -7.1375739026e-06 84.572189331 -68.729003906 4.1331486702
          0 0 0 11.515963554 -33.012397766 0.44818344712
          -2.7359316349 -8.420624733 0.51096361876 48.57976532 -62.102359772 -2.487226963
          -2.7436821461 -8.798538208 0.25848403573 75.177322388 -66.771690369 3.7145571709
          -0.68418180943 -0.29866093397 -0.44706967473 48.619777679 -62.410125732 -1.2435562611
          57.250778198 -63.765045166 1.4481976032 4.996576786 -25.490829468 0.23051816225
          -2.0024151802 -5.0306072235 -0.27075883746 19.563625336 -41.511180878 0.65454655886
          29.139369965 -51.047389984 -6.2602259732e-07 -9.6314925031e-06 -19.100990295 -8.3364426473e-08
          66.063301086 -65.015007019 3.3053197861 -1.3287816048 -1.9094502926 -0.52344483137
          36.649730682 -51.58902359 2.1228106022 -2.7428042889 -8.9217939377 -7.0207208935e-09
          4.531137165e-06 -13.042545319 1.2083120964e-05 48.633110046 -62.512771606 -1.0968185506e-06
          91.377349854 -78.61530304 -4.0540809631 0 0 0
          11.498152733 -32.677032471 0.89652436972 29.129533768 -50.941822052 0.85080516338
          0 0 0 81.307548523 -76.696205139 -3.6417970657
          5.7305140495 -32.353702545 -0.4487349987 -9.0668254416e-06 -18.982076645 6.9818042903e-06
          -1.3723720312 -0.36009889841 0.89570260048 12.964014053 -40.643943787 -0.87408405542
          91.433082581 -78.922096252 -2.02582407 57.20557785 -63.458019257 2.8966825008
          81.362014771 -77.000961304 -1.8214132786 -1.1486400366 -0.62795704603 0.36852023005
          4.9865818024 -25.14500618 0.46110498905 5.7394757271 -32.690128326 -0.22432786226
          -2.0119166374 -4.6513857841 -0.52958917618 40.158718109 -60.950706482 -2.0761733055
          -2.7436821461 -8.7985391617 -0.25848403573 19.539518356 -41.185600281 1.3092004061
          -3.481824398 -13.133449554 0.49153956771 48.619777679 -62.410125732 1.2435541153
          12.980308533 -40.970977783 -0.43700578809 -3.4934904575 -13.501211166 0.2466930896
          40.193004608 -61.259651184 -1.0380722284 71.521789551 -74.975112915 -3.2388315201
          91.450256348 -79.023178101 -2.4204878173e-06 -2.6670806408 -2.0357232094 1.0478850603
          0 0 0 71.571540833 -75.277664185 -1.6191345453
          -2.5624001026 -2.3872823715 0.53800904751 81.37978363 -77.102035522 -2.0520039925e-06
          21.696212769 -49.874797821 -1.2782920599 5.7425127029 -32.802318573 -1.4347529032e-07
          12.985787392 -41.080001831 -2.5957686489e-07 -2.7663676519e-05 -25.04004097 -1.6232010239e-05
          -1.1399437189 -0.6845664978 5.9051452617e-09 21.718732834 -50.193019867 -0.63913166523
          40.204429626 -61.362640381 -8.1075461367e-07 -2.9197879485e-05 -25.386255264 -8.1424550444e-06
          -3.4963159561 -13.623174667 9.2318614975e-09 29.100101471 -50.625095367 1.7016526461
          71.58808136 -75.378814697 -1.6967156853e-06 -7.4895278885e-06 -18.625343323 1.4054068743e-05
          -2.5116233826 -2.491519928 2.0646364618e-08 61.991912842 -73.450942993 -2.8368058205
          91.433082581 -78.922096252 2.0258193016 21.726261139 -50.299091339 -3.8797745106e-07
          -4.040037632 -4.8382172585 1.0593301058 -2.7359316349 -8.420624733 -0.51096361876
          -2.9657005143e-05 -25.501745224 -4.0988048511e-08 48.57976532 -62.102363586 2.4872248173
          0 0 0 62.036521912 -73.752838135 -1.418266654
          -4.0215144157 -5.2173867226 0.54164958 81.362014771 -77.000961304 1.8214092255
          5.7394757271 -32.690128326 0.22432757914 12.980308533 -40.970977783 0.43700531125
          -1.1486399174 -0.62795710564 -0.36852023005 40.193004608 -61.259651184 1.0380705595
          -3.4934902191 -13.501211166 -0.2466930747 71.571540833 -75.277664185 1.6191312075
          62.051376343 -73.853630066 -1.3544364492e-06 31.912351608 -60.00560379 -1.6634055376
          -4.2351241112 -18.725101471 0.47505858541 -4.0011610985 -5.3357753754 4.1896470293e-08
          -2.5624001026 -2.3872823715 -0.5380089879 -4.2463421822 -19.081436157 0.23768006265
          21.718732834 -50.193019867 0.63913089037 31.940404892 -60.315776825 -0.83170068264
          -2.9045815609e-05 -25.386257172 8.0727850218e-06 52.69134903 -72.124641418 -2.4344799519
          91.377349854 -78.61530304 4.0540761948 0 0 0
          -5.4948673248 -8.6581869125 1.0213832855 52.730476379 -72.426841736 -1.2171881199
          81.307548523 -76.696205139 3.6417930126 -5.5107369423 -9.0353860855 0.51672261953
          5.7305145264 -32.353702545 0.44873476028 31.949756622 -60.41916275 -5.3463014638e-07
          -1.3723720312 -0.36009898782 -0.89570260048 12.964014053 -40.643943787 0.87408363819
          -4.2499132156 -19.200216293 4.6543473076e-08 62.036521912 -73.752838135 1.4182640314
          40.158718109 -60.950706482 2.0761716366 6.4632978439 -40.319683075 -0.43743425608
          -3.4818241596 -13.133450508 -0.4915395081 -4.0215144157 -5.2173871994 -0.5416495204