<?xml version="1.0"?>
<VTKFile type="UnstructuredGrid" version="0.1" byte_order="LittleEndian" header_type="UInt32" compressor="vtkZLibDataCompressor">
  <UnstructuredGrid>
    <Piece NumberOfPoints="6405" NumberOfCells="4800">
      <PointData>
        <DataArray type="Float32" Name="DISPLACEMENT" NumberOfComponents="3" ComponentName0="X-DISPLACEMENT" ComponentName1="Y-DISPLACEMENT" ComponentName2="Z-DISPLACEMENT" format="ascii" RangeMin="0" RangeMax="253.5811253">
          0 0 0 0 0 0
          1.9915177822 -1.2260910273 -0.92079234123 0 0 0
          1.2865856886 -0.72820287943 -0.7153224349 0 0 0
          1.8185391426 -1.3505778313 -0.36604359746 1.1194019318 -0.83066368103 -0.29176747799
          0 0 0 3.5686583519 -2.2407717705 -0.94260931015
          0 0 0 3.5179305077 -2.3868129253 -0.48692652583
          2.5834183693 -1.8410067558 -0.78857010603 0 0 0
          0 0 0 1.8247039318 -1.3930567503 -1.3046018239e-06
          0.94183760881 -0.49638736248 -0.55314594507 1.1149463654 -0.85139417648 -6.0030271243e-07
          2.5286695957 -1.95741117 -0.40277022123 0.80913376808 -0.59134995937 -0.22417801619
          3.4781677723 -2.4280178547 -2.8245124213e-06 1.889015317 -1.5047216415 -0.62066656351
          0 0 0 2.4942102432 -1.9960128069 -1.4914550093e-06
          1.8318148851 -1.6130408049 -0.31841218472 0 0 0
          5.0002427101 -3.5337824821 -0.88374197483 0 0 0
          0.80277568102 -0.60902673006 1.5298310529e-07 0 0 0
          0 0 0 1.818539381 -1.3505790234 0.36604106426
          3.8026249409 -3.1498100758 -0.75326675177 5.0153493881 -3.6388547421 -0.45103126764
          0.67407566309 -0.32941219211 -0.37645563483 1.1194015741 -0.83066499233 0.29176625609
          3.8152050972 -3.2489769459 -0.38391306996 0.58905881643 -0.43283396959 -0.15672716498
          1.8018629551 -1.642267704 -3.0150303587e-08 3.5179305077 -2.3868153095 0.48692080379
          0 0 0 0 0 0
          1.3003931046 -1.2859463692 -0.43831589818 2.8514220715 -2.8455939293 -0.62393057346
          5.0026950836 -3.6773631573 -4.657234058e-06 2.528668642 -1.957414031 0.40276715159
          2.8435356617 -2.939814806 -0.31704005599 0.80913335085 -0.59135150909 0.2241782397
          3.8065061569 -3.2823250294 -2.6881994017e-06 1.2417982817 -1.3913196325 -0.22573703527
          0.59473782778 -0.44710281491 1.1975602092e-06 0 0 0
          6.3295292854 -4.9913420677 -0.79254108667 0 0 0
          4.9563817978 -4.6409034729 -0.69553345442 1.8318139315 -1.6130436659 0.31841206551
          6.3649930954 -5.0677704811 -0.40145564079 1.991517067 -1.2260934114 0.92078971863
          0 0 0 0 0 0
          1.221498251 -1.4175752401 1.6359626898e-06 2.8336935043 -2.969073534 -6.1352125158e-07
          0.23798900843 -0.23444396257 -0.16640734673 4.9880628586 -4.7168440819 -0.35080939531
          1.2865842581 -0.72820562124 0.71532094479 1.9871124029 -2.6404037476 -0.49277764559
          0 0 0 5.0153489113 -3.6388585567 0.45102187991
          0.18776734173 -0.36290091276 -0.084967210889 1.9595643282 -2.7265660763 -0.25134441257
          3.8152034283 -3.248980999 0.38390761614 0.5890583992 -0.43283569813 0.15672940016
          3.7890102863 -4.3613591194 -0.59950911999 0.47818669677 -1.1567493677 -0.27021607757
          6.3660054207 -5.0948724747 -6.7162391133e-06 3.568656683 -2.2407770157 0.94260334969
          0 0 0 0 0 0
          3.8030865192 -4.4351458549 -0.30213534832 2.5834159851 -1.8410123587 0.78856682777
          4.9928073883 -4.7434587479 -4.1749281081e-06 0.41528707743 -1.2565076351 -0.14361676574
          0.94183683395 -0.49639061093 0.55314594507 0.20512478054 -0.39514634013 2.5685990295e-06
          1.9508404732 -2.7555294037 1.6517612949e-06 2.8435342312 -2.9398190975 0.31703874469
          1.2417970896 -1.391322732 0.22574020922 3.8041696548 -4.4602661133 -1.5707190641e-06
          1.8890135288 -1.504727602 0.62066620588 0.40401092172 -1.2838484049 3.3699545838e-06
          2.7133889198 -4.1675848961 -0.50825679302 6.3649916649 -5.0677757263 0.40144211054
          5.0002398491 -3.53379035 0.88373225927 0 0 0
          7.5501384735 -6.5719718933 -0.71775650978 0 0 0
          0 0 0 0.96948796511 -2.4975631237 -0.40657949448
          2.7099723816 -4.2360649109 -0.25755468011 7.5845365524 -6.6288199425 -0.36097714305
          6.0389752388 -6.2467589378 -0.64395833015 4.9880609512 -4.7168498039 0.35080096126
          0.061666507274 -0.39958059788 -0.20125378668 0 0 0
          3.8026211262 -3.149818182 0.75326102972 0.67407572269 -0.32941585779 0.37645760179
          0.93264359236 -2.5681579113 -0.20051142573 0.18776626885 -0.36290305853 0.08497197181
          -0.019201176241 -0.44204461575 -0.070406220853 1.9595626593 -2.7265706062 0.25134763122
          6.0707259178 -6.3060531616 -0.32250359654 3.8030843735 -4.435151577 0.30213212967
          2.705779314 -4.2616376877 1.2255502497e-06 7.5907998085 -6.6492624283 -8.9729855972e-06
          0.25235009193 -1.4090138674 -0.36019301414 0.41528502107 -1.2565108538 0.14362341166
          0 0 0 4.6958479881 -5.9824047089 -0.56830948591
          1.3003919125 -1.2859526873 0.4383187592 2.851418972 -2.8456027508 0.62392902374
          0.92555308342 -2.5950119495 4.2198207666e-06 6.079015255 -6.3268475533 -5.9180861172e-06
          0.010301733389 -0.50770574808 5.4156116676e-06 0.24083554745 -1.4142872095 -0.14367617667
          4.7162027359 -6.0418505669 -0.28475862741 6.3295249939 -4.9913520813 0.7925272584
          0 0 0 1.6418362856 -4.0045371056 -0.43907439709
          4.9563770294 -4.6409144402 0.69552475214 0.25872859359 -1.454657793 7.3098499342e-06
          1.6453430653 -4.0755662918 -0.21254749596 4.7212328911 -6.0624585152 -2.8119632134e-06
          0.23798853159 -0.23444826901 0.16641153395 2.7099704742 -4.2360711098 0.2575571239
          3.4570531845 -5.7842011452 -0.49285969138 7.5845341682 -6.6288261414 0.36095908284
          0.4446310997 -2.5418286324 -0.32733052969 1.9871100187 -2.640412569 0.49278068542
          0 0 0 0.93264049292 -2.5681624413 0.20051978528
          3.467915535 -5.8413639069 -0.2463067621 -0.019204484299 -0.44204679132 0.070416226983
          0.49611645937 -2.6301858425 -0.16313901544 6.0707230568 -6.3060593605 0.32249167562
          3.7890059948 -4.3613705635 0.59950578213 0.47818446159 -1.1567560434 0.27022236586
          8.6800966263 -8.236114502 -0.66500043869 0 0 0
          1.648571372 -4.1017770767 4.2673050302e-06 7.0570540428 -7.9311738014 -0.60332435369
          8.7070417404 -8.28312397 -0.3333196342 0 0 0
          0.0054590459913 -0.64285290241 -0.088186822832 7.0825748444 -7.9810676575 -0.30102324486
          3.4692935944 -5.8591547012 3.9747033043e-07 -0.03752052784 -0.68502247334 -0.051721338183
          0.24083131552 -1.4142900705 0.14369019866 0.53256809711 -2.6798014641 7.9877436292e-06
          4.7161998749 -6.0418572426 0.28475296497 5.5642385483 -7.6828913689 -0.53778290749
          -0.23836572468 -1.5697606802 -0.27450940013 8.7140655518 -8.2997875214 -1.1450887541e-05
          0 0 0 -0.22444504499 -1.6046860218 -0.14724390209
          5.584195137 -7.7334856987 -0.26803028584 7.0901389122 -7.9982862473 -7.9205601651e-06
          -0.037345264107 -0.69620710611 5.5920090745e-06 2.7133858204 -4.1675972939 0.5082591176
          2.3285787106 -5.6305565834 -0.4074895978 7.5501327515 -6.5719842911 0.71773821115
          0 0 0 0.72116708755 -3.9000320435 -0.26829436421
          1.6453392506 -4.0755724907 0.21255624294 0.96948379278 -2.4975726604 0.40658730268
          6.0389685631 -6.2467718124 0.64394617081 0.061665259302 -0.39958661795 0.20126283169
          0.73870390654 -4.0075087547 -0.13919346035 2.3223273754 -5.6850275993 -0.20049829781
          3.4679129124 -5.8413715363 0.24630761147 0.49611240625 -2.6301910877 0.16315503418
          5.5896954536 -7.7504014969 -4.268030807e-06 -0.22743323445 -1.601981163 1.1037848708e-05
          4.1855635643 -7.5041790009 -0.47171461582 -0.050369750708 -2.7566392422 -0.26829889417
          0.25234618783 -1.4090226889 0.36020717025 8.7070388794 -8.2831315994 0.33329665661
          4.6958422661 -5.9824180603 0.56830370426 0 0 0
          2.3148031235 -5.6949563026 3.7952208913e-06 0.75354957581 -4.0414085388 7.4437607509e-06
          4.1984205246 -7.5522580147 -0.23336112499 7.0825710297 -7.98107481 0.30100733042
          -0.084869787097 -2.8130915165 -0.11105786264 -0.037521738559 -0.68502479792 0.05173227936
          1.6418296099 -4.0045495033 0.4390835166 4.201107502 -7.566593647 -5.0901013537e-07
          5.5841913223 -7.7334933281 0.26802167296 -0.22444753349 -1.6046899557 0.14726629853
          -0.072934411466 -2.8479657173 1.1697950868e-05 9.7468852997 -9.9680547714 -0.63228648901
          0 0 0 9.765707016 -10.012348175 -0.31618514657
          3.4570481777 -5.784216404 0.49286070466 8.0218791962 -9.6767625809 -0.57338297367
          0.44462582469 -2.5418407917 0.32734626532 1.076531291 -5.5163235664 -0.29499456286
          -0.0017272160621 -0.8147419095 -0.059957504272 0.73870062828 -4.0075139999 0.13920859993
          2.3223254681 -5.6850361824 0.20050610602 0 0 0
          8.0402383804 -9.7231216431 -0.28540158272 1.0382958651 -5.5706019402 -0.15275496244
          -0.026920603588 -0.84510195255 -0.025479938835 2.904504776 -7.4008955956 -0.40109044313
          0.15789158642 -4.1451821327 -0.33755773306 8.6800899506 -8.2361278534 0.66497719288
          0 0 0 7.0570468903 -7.9311881065 0.60330814123
          9.7719678879 -10.027676582 -1.423847516e-05 0.11044697464 -4.1615548134 -0.12492522597
          2.8991744518 -7.4362630844 -0.20217946172 0.0054618208669 -0.64285719395 0.08819655329
          6.3866667747 -9.4450759888 -0.50985437632 -0.017656467855 -1.7472128868 -0.097991257906
          0 0 0 4.1984171867 -7.5522661209 0.23336006701
          -0.084871076047 -2.8130972385 0.11108203232 8.0458517075 -9.7382392883 -1.0245890735e-05
          1.0226300955 -5.5770792961 7.8455177572e-06 6.4023971558 -9.4906768799 -0.25208842754
          -0.050047315657 -1.8110723495 -0.053956542164 -0.028044546023 -0.85570526123 6.3077509367e-06
          5.5642313957 -7.6829066277 0.53777402639 -0.23836791515 -1.5697726011 0.27453321218
          2.8960356712 -7.4465494156 3.4949737255e-06 0.12759634852 -4.2107534409 1.201475061e-05
          2.3285756111 -5.6305737495 0.40749827027 6.4050703049 -9.5041027069 -6.0033989939e-06
          -0.055387355387 -1.8223540783 1.2401426829e-05 0.7211611867 -3.9000427723 0.26831123233
          9.7657032013 -10.012355804 0.31615662575 4.8558645248 -9.3012218475 -0.44689574838
          0 0 0 -0.077799744904 -2.8864717484 -0.12965194881
          4.8669939041 -9.3406171799 -0.21892875433 8.0402336121 -9.7231292725 0.28538101912
          -0.026921156794 -0.8451038599 0.025491893291 1.0382958651 -5.5706114769 0.15277099609
          -0.093531191349 -2.9558887482 -0.068413384259 4.1855568886 -7.5041952133 0.47171345353
          1.5361837149 -7.3156905174 -0.38813427091 2.8991720676 -7.4362726212 0.20218650997
          -0.050370916724 -2.7566523552 0.2683236897 0.11044619977 -4.1615614891 0.12494965643
          0.43084600568 -5.7709960938 -0.40851813555 1.4930412769 -7.330599308 -0.18132603168
          4.8651638031 -9.352938652 -1.6653275452e-06 6.4023923874 -9.490685463 0.25207623839
          -0.050048463047 -1.8110756874 0.053981155157 0.41649180651 -5.7411289215 -0.16102619469
          -0.10824911296 -2.9702620506 1.7705355276e-05 10.778679848 -11.769535065 -0.61542606354
          0 0 0 -0.0061619705521 -0.88218021393 -0.012985369191
          1.4621480703 -7.3338208199 8.0015661297e-06 3.4313790798 -9.2481126785 -0.40572568774
          8.9504737854 -11.483533859 -0.55264931917 9.7468767166 -9.9680700302 0.63225775957
          0 0 0 0 0 0
          0.41658303142 -5.7553925514 1.3080976714e-05 -0.11051508784 -4.2524647713 -0.12236823887
          10.790225029 -11.815737724 -0.30723550916 3.4354133606 -9.2739362717 -0.19748911262
          8.962688446 -11.531043053 -0.27468696237 8.0218696594 -9.6767787933 0.57336217165
          -0.016756149009 -0.91116821766 -0.0051542213187 1.0765326023 -5.5163431168 0.2950116396
          -0.0017230506055 -0.81474560499 0.05996933952 -0.14675451815 -4.3276042938 -0.099780313671
          4.8669891357 -9.3406257629 0.21892519295 -0.093534648418 -2.9558928013 0.068447872996
          7.1706652641 -11.254961014 -0.48481330276 2.904500246 -7.4009137154 0.40109732747
          0.15789175034 -4.1451973915 0.33758375049 0 0 0
          -0.052145343274 -1.8802732229 -0.030126769096 10.795005798 -11.831162453 -1.744551264e-05
          -0.018895026296 -0.91939598322 6.5596582317e-06 3.4324493408 -9.2851390839 2.620862233e-06
          7.1805124283 -11.297580719 -0.23828291893 6.386657238 -9.4450922012 0.50984179974
          8.9669618607 -11.545887947 -1.2941064597e-05 -0.017652489245 -1.7472192049 0.098013579845
          -0.14156220853 -4.3369069099 2.1352549084e-05 -0.063028164208 -1.925062418 -0.012426678091
          1.4930411577 -7.3306093216 0.18134218454 0.41649058461 -5.7411389351 0.16105276346
          0.7037293911 -7.4266996384 -0.37963297963 7.1801972389 -11.305864334 -8.1752159531e-06
          -0.06768925488 -1.9410645962 1.3909109839e-05 0.73534947634 -7.4562082291 -0.17672556639
          5.4759221077 -11.121069908 -0.41242012382 0 0 0
          -0.11849501729 -3.04793787 -0.038752708584 10.790221214 -11.815746307 0.30720061064
          -0.016756419092 -0.91116935015 0.0051667247899 3.4354093075 -9.2739458084 0.19749416411
          5.4703841209 -11.151769638 -0.19756264985 4.8558554649 -9.30123806 0.44689160585
          8.9626836777 -11.531051636 0.27466103435 2.1709301472 -9.2233438492 -0.39983409643
          -0.304133147 -6.0088305473 -0.40220597386 -0.077800445259 -2.8864805698 0.12968312204
          -0.13246054947 -3.1057367325 -0.01945188269 -0.14676180482 -4.3276071548 0.099821202457
          2.1378145218 -9.2327861786 -0.19007843733 -0.28422427177 -5.9924631119 -0.20224760473
          0.74319946766 -7.4771227837 1.2759634956e-05 1.536182642 -7.3157100677 0.38815045357
          7.1805067062 -11.297588348 0.23826636374 0.43084317446 -5.7710151672 0.40854415298
          5.4517860413 -11.153069496 -3.094840622e-06 -0.063029587269 -1.9250645638 0.012453595176
          -0.13600860536 -3.1245779991 2.1304935217e-05 2.0932471752 -9.2274923325 7.1115496212e-06
          -0.26970055699 -5.9765777588 1.798510857e-05 -0.21973405778 -4.448410511 -0.066162191331
          3.9443025589 -11.077656746 -0.36762005091 10.778671265 -11.769552231 0.61539113522
          0 0 0 0.73534780741 -7.4562187195 0.17675118148
          -0.0061566070653 -0.88218200207 0.012997652404 -0.22943758965 -4.5098423958 -0.031644888222
          3.4313719273 -9.2481307983 0.40573039651 8.9504642487 -11.483551025 0.55262321234
          3.9273459911 -11.102524757 -0.17126084864 11.797130585 -13.656135559 -0.60930448771
          0 0 0 -0.1105229184 -4.2524747849 0.12240564078
          11.803283691 -13.705920219 -0.30379804969 -0.036496851593 -0.91984963417 0.018402714282
          9.8604593277 -13.369900703 -0.54100817442 5.4703769684 -11.151778221 0.19755584002
          0 0 0 -0.13246636093 -3.1057395935 0.019493419677
          9.8668518066 -13.420424461 -0.26925557852 -0.03317983076 -0.94262874126 0.0086693651974
          2.1378133297 -9.2327976227 0.19009247422 -0.2842259407 -5.9924726486 0.20228430629
          7.1706542969 -11.254977226 0.48479631543 -0.23437839746 -4.5286769867 3.0303946915e-05
          3.8969385624 -11.115437508 1.4344500414e-06 -0.052140828222 -1.8802767992 0.03015172109
          0.97333598137 -9.203327179 -0.31192961335 -0.084232501686 -1.9531261921 0.020729139447
          7.9408864975 -13.12989521 -0.46813333035 -0.056169893593 -7.7066001892 -0.38981100917
          11.806655884 -13.722187042 -2.1053712771e-05 0 0 0
          0.97779363394 -9.2373418808 -0.1749984026 9.8693618774 -13.436126709 -1.5980054741e-05
          -0.033787053078 -0.94992542267 6.3876841523e-06 7.9491791725 -13.176225662 -0.23071888089
          -0.084072634578 -1.9884319305 0.012065734714 -0.062225770205 -7.7083954811 -0.17112784088
          0.70372533798 -7.4267201424 0.3796582222 0.98747628927 -9.2421398163 1.1577248188e-05
          -0.29568663239 -6.0170674324 -0.042498290539 -0.22945609689 -4.5098485947 0.031698748469
          2.6368217468 -11.071649551 -0.35657417774 7.9530067444 -13.187222481 -1.0766331798e-05
          5.4759092331 -11.121088028 0.41241177917 3.9273397923 -11.102534294 0.17126312852
          -0.032102141529 -7.722846508 1.6220439647e-05 -0.084123454988 -2.0008330345 1.3813993064e-05
          -0.11849818379 -3.0479435921 0.038789134473 11.803279877 -13.705929756 0.30375596881
          6.0717639923 -12.969363213 -0.39590793848 -0.31131699681 -6.1052646637 -0.075784757733
          -0.14812271297 -3.1477096081 0.021219585091 2.6311278343 -11.086287498 -0.18020842969
          2.1709265709 -9.2233638763 0.39984750748 -0.30413681269 -6.0088505745 0.40224331617
          0 0 0 -0.14876426756 -3.192078352 0.01297165826
          9.8668470383 -13.420433998 0.26922360063 -0.033180002123 -0.9426292181 -0.0086572058499
          6.0356116295 -12.992956161 -0.19221420586 -0.28512704372 -6.1169095039 4.8164452892e-05
          2.6194024086 -11.098234177 5.4453739722e-06 0.97779154778 -9.2373523712 0.1750215143
          5.9900612831 -12.984926224 -5.6700055211e-06 -0.15044991672 -3.2077465057 2.2008922315e-05
          7.9491734505 -13.176234245 0.2306971848 -0.084073975682 -1.9884331226 -0.012038722634
          -0.062225691974 -7.7084064484 0.17116186023 -0.21975654364 -4.4484224319 0.066208697855
          3.9442918301 -11.077675819 0.36762097478 4.3926100731 -12.940519333 -0.34682795405
          11.797122955 -13.656155586 0.60926252604 0 0 0
          -0.21453006566 -4.5310268402 0.028513738886 -0.036491367966 -0.91984981298 -0.01839055866
          9.860449791 -13.369919777 0.54097622633 -0.31139287353 -6.1052770615 0.075864627957
          2.631124258 -11.086297035 0.18021920323 4.3091549873 -12.926234245 -0.17494276166
          0.21217001975 -9.4718999863 -0.41947951913 -0.21876731515 -4.5854458809 0.011904008687
          -0.14877043664 -3.1920816898 -0.012929513119 6.0355997086 -12.992964745 0.19220255315
          0.21376240253 -9.4454221725 -0.16538986564 1.3207082748 -11.043274879 -0.36955928802
          -0.56697046757 -7.8623070717 -0.19534488022 12.813518524 -15.64752388 -0.60829782486
          0 0 0 10.762446404 -15.359730721 -0.53677070141
          0.97333109379 -9.2033481598 0.31195291877 -0.084227666259 -1.953127265 -0.020704273134
          7.9408755302 -13.12991333 0.46811124682 -0.53187805414 -7.8861198425 -0.15026219189
          1.3050541878 -11.037288666 -0.17082461715 -0.056173536927 -7.70662117 0.38984617591
          12.81596756 -15.69996357 -0.30332830548 0 0 0
          -0.21863599122 -4.6038146019 3.1119961932e-05 4.1940765381 -12.893040657 -8.2060080331e-07
          -0.060717664659 -0.92613500357 0.046566877514 10.765487671 -15.412650108 -0.26771357656
          -0.04688718915 -0.94604229927 0.019747801125 0.23203882575 -9.4731740952 1.3786589079e-05
          8.7162485123 -15.108839989 -0.46401539445 -0.30587124825 -7.7626023293 2.4975310225e-05
          1.2931394577 -11.030461311 9.4063043434e-06 12.817630768 -15.716985703 -2.4806224246e-05
          0 0 0 -0.10720038414 -1.9628947973 0.062564641237
          8.7181653976 -15.16172123 -0.23110820353 10.767204285 -15.429707527 -1.9102963051e-05
          -0.29576176405 -6.0170869827 0.042524363846 2.6368148327 -11.071668625 0.35658457875
          -0.046123974025 -0.95201122761 5.5315299505e-06 -0.097013920546 -1.9931975603 0.032789818943
          6.0717453957 -12.969380379 0.39589568973 -0.14812536538 -3.1477136612 -0.021181950346
          -0.30573439598 -6.1216158867 0.016397474334 3.0485851765 -12.974137306 -0.36912325025
          -0.21878644824 -4.5854549408 -0.011845862493 4.3091449738 -12.926242828 0.17494079471
          -0.30700153112 -6.177675724 0.007254761178 3.0398750305 -12.958917618 -0.18037688732
          0.21376462281 -9.4454345703 0.1654188931 8.7187976837 -15.179714203 -1.3576791389e-05
          -0.094119638205 -2.0032498837 1.2070843695e-05 6.6723151207 -14.903898239 -0.39635550976
          -0.53207170963 -7.8862228394 0.15036192536 1.3050538301 -11.037299156 0.17084363103
          12.815964699 -15.699975014 0.30327877402 0 0 0
          -0.14617115259 -3.15371418 0.073801629245 6.6657009125 -14.946461678 -0.20160606503
          10.765483856 -15.412660599 0.26767542958 -0.1406916678 -3.191432476 0.038938261569
          -0.29135996103 -6.1841254234 3.6652294511e-05 3.0293262005 -12.943324089 3.7194683955e-06
          -0.046887136996 -0.94604229927 -0.019737193361 8.7181596756 -15.16173172 0.23108112812
          6.6535429955 -14.959441185 -8.4879211499e-06 -0.13887545466 -3.2041277885 1.8989720047e-05
          4.3925948143 -12.940538406 0.34682545066 0.48761242628 -11.222803116 -0.3826534152
          -0.097014546394 -1.9931982756 -0.032766196877 -0.2145499438 -4.5310382843 -0.028466947377
          -0.56476193666 -9.7320842743 -0.43137276173 0.51343399286 -11.22582531 -0.17585124075
          0.21216776967 -9.4719200134 0.41951009631 -0.5223493576 -9.7100410461 -0.22187714279
          -0.30703949928 -6.1777091026 -0.0071842158213 3.0398714542 -12.958926201 0.18038445711
          1.3207054138 -11.04329586 0.36957895756 -0.5671993494 -7.8624644279 0.19556343555
          -0.18175445497 -4.5332431793 0.080891862512 4.7240014076 -14.782689095 -0.34877634048
          12.813510895 -15.647546768 0.60824853182 0 0 0
          10.76243782 -15.359752655 0.53673279285 -0.17885668576 -4.5746202469 0.043173916638
          0.50605392456 -11.216916084 1.1720202565e-05 -0.36564004421 -7.8616828918 -0.0040388195775
          1.8908766508 -12.997385025 -0.37658572197 4.6822857857 -14.794391632 -0.19638597965
          -0.060712490231 -0.92613381147 -0.0465561077 -0.51560986042 -9.7093515396 1.35205064e-05
          6.6656913757 -14.946471214 0.20158931613 -0.14069533348 -3.1914353371 -0.038901496679
          1.853511095 -12.979064941 -0.17640715837 -0.3686003089 -7.9333844185 -0.022950673476
          8.7162389755 -15.108861923 0.46398854256 -0.17830848694 -4.5882663727 2.4833363568e-05
          4.5916991234 -14.781955719 -3.4500289985e-06 -0.10719520599 -1.9628936052 -0.062542565167
          1.8009746075 -12.950129509 7.422078852e-06 13.828777313 -17.755964279 -0.60847920179
          0 0 0 -0.39141577482 -7.9365372658 3.9814833144e-05
          13.82994175 -17.809713364 -0.3035466373 0 0 0
          0.51343613863 -11.225836754 0.17587557435 11.662391663 -17.46871376 -0.5355399251
          -0.30578374863 -6.1216592789 -0.016329851002 3.0485789776 -12.974155426 0.36913076043
          -0.080707378685 -0.90074503422 0.07265971601 -0.52234691381 -9.7100524902 0.22190724313
          11.662714958 -17.522373199 -0.26762318611 -0.056777883321 -0.91931343079 0.030463861302
          6.6722998619 -14.903918266 0.39633947611 13.830811501 -17.827205658 -2.8262815249e-05
          -0.1788649857 -4.57462883 -0.043125879019 9.4961194992 -17.210605621 -0.46367046237
          -0.11882606149 -1.9045469761 0.10372314602 4.6822733879 -14.794398308 0.19638036191
          0 0 0 3.4833717346 -14.813708305 -0.35932767391
          -0.20608462393 -6.1061592102 0.086542770267 -0.14617064595 -3.1537146568 -0.073768503964
          -0.1005314365 -1.9334365129 0.053419742733 9.4962215424 -17.266223907 -0.23150192201
          11.662630081 -17.53985405 -2.1884030502e-05 1.8535122871 -12.979073524 0.17642220855
          -0.20839457214 -6.1517481804 0.043216019869 3.4881112576 -14.826982498 -0.1574048996
          -0.36861106753 -7.9334292412 0.023024924099 -0.055056702346 -0.92485910654 4.1304383558e-06
          -0.28943955898 -11.486012459 -0.3736281693 9.4954652786 -17.285596848 -1.5941714082e-05
          0.48761183023 -11.222820282 0.38267654181 -0.095651306212 -1.9424448013 9.0511503004e-06
          -0.21190395951 -6.1643772125 2.8826552807e-05 -0.27672192454 -11.493408203 -0.15355272591
          3.4800205231 -14.847123146 3.380029284e-06 -0.56476157904 -9.7321014404 0.43140432239
          13.829939842 -17.809726715 0.3034901917 7.3231182098 -16.980712891 -0.38835969567
          -0.51708692312 -9.6360807419 0.038681983948 0 0 0
          -0.12754026055 -3.0710172653 0.12387324125 0.74259209633 -12.979453087 -0.31994825602
          -0.11809408665 -3.1057605743 0.063930228353 7.3281326294 -17.03940773 -0.19842989743
          11.662711143 -17.522386551 0.26757955551 -0.50660157204 -9.743473053 -0.091224677861
          0.7412405014 -13.005856514 -0.15329711139 -0.05677754432 -0.91931307316 -0.030455864966
          -0.18176232278 -4.5332508087 -0.080848298967 4.723985672 -14.782706261 0.34877067804
          -0.28222081065 -11.460273743 1.101484213e-05 -0.36566254497 -7.8617210388 0.0040770852938
          1.8908753395 -12.99739933 0.37660071254 7.3284573555 -17.064344406 -1.0252086213e-05
          9.4962177277 -17.266237259 0.23147033155 -0.40612351894 -9.7788686752 1.9883998903e-05
          -0.10053107888 -1.9334365129 -0.053401879966 -0.11683831364 -3.1138730049 1.3886979104e-05
          -0.20840160549 -6.1517624855 -0.043161340058 3.4881095886 -14.82698822 0.15741142631
          0.73221164942 -13.022071838 9.7217143775e-06 2.3115606308 -14.834641457 -0.33969271183
          -0.2483959198 -7.83487463 0.083277508616 2.2912025452 -14.818131447 -0.15973621607
          -0.24787379801 -7.8928198814 0.039809044451 13.828770638 -17.755990982 0.60842305422
          0 0 0 -0.27671521902 -11.493420601 0.15357756615
          -0.1266425699 -4.4357004166 0.12987215817 5.1631126404 -16.795539856 -0.3156068325
          -0.12430502474 -4.4691824913 0.070083193481 11.662384033 -17.468740463 0.53549671173
          -0.080702893436 -0.90074282885 -0.072651311755 5.1742634773 -16.841335297 -0.17170865834
          7.3281264305 -17.039419174 0.19840978086 -0.50661879778 -9.7434720993 0.091268718243
          -0.11809466779 -3.1057620049 -0.063903063536 0.7412417531 -13.005862236 0.15331666172
          2.2662949562 -14.797985077 6.9388393058e-06 -0.23127742112 -7.9155921936 2.6652636734e-05
          9.4961118698 -17.210630417 0.46363961697 -0.11882087588 -1.9045437574 -0.10370609164
          3.4833686352 -14.813721657 0.35933429003 -0.1212798506 -4.4779372215 1.7643715182e-05
          -0.20609349012 -6.106171608 -0.086497530341 5.1561985016 -16.862869263 -5.0717380873e-06
          14.841960907 -19.985088348 -0.60759401321 0 0 0
          -0.28943568468 -11.486026764 0.37365323305 2.2912034988 -14.818136215 0.15975007415
          0 0 0 12.557516098 -19.699518204 -0.53546822071
          -0.99572432041 -11.728392601 -0.32145026326 -0.24788035452 -7.8928313255 -0.039760228246
          -0.09632705152 -0.84409165382 0.095921009779 0.0024858047254 -13.236825943 -0.38043141365
          14.842460632 -20.038837433 -0.3034952879 7.3231091499 -16.980735779 0.38834089041
          12.557994843 -19.752912521 -0.26733022928 -0.061633493751 -0.86117249727 0.040869176388
          -0.51711887121 -9.6360797882 -0.038626182824 -0.93222546577 -11.750569344 -0.14185395837
          -0.1275370419 -3.0710144043 -0.12384783477 4.0110163689 -16.771505356 -0.31573808193
          -0.12430617213 -4.4691858292 -0.070048898458 0.74259269238 -12.979463577 0.31996867061
          -0.11351953447 -5.9893393517 0.13419182599 5.1742539406 -16.841342926 0.17170028389
          0.0063092880882 -13.239392281 -0.11367994547 -0.10766298324 -6.0235772133 0.072072133422
          3.9289176464 -16.696071625 -0.14284667373 10.285855293 -19.449226379 -0.46292796731
          14.842440605 -20.056524277 -3.1013001717e-05 -0.11913507432 -1.7738362551 0.14728736877
          0 0 0 10.280344009 -19.500663757 -0.23035760224
          -0.091678924859 -1.8041718006 0.075661152601 12.558319092 -19.770303726 -2.3991944545e-05
          1.1854259968 -14.882301331 -0.35679852962 -0.37688469887 -11.50487709 9.7155107142e-06
          -0.025798644871 -13.247595787 8.4802404672e-06 -0.32788079977 -9.7069387436 0.045862622559
          -0.058694522828 -0.86639547348 2.4869445951e-06 1.0903087854 -14.822164536 -0.15032660961
          3.7386951447 -16.555652618 4.7901585276e-06 -0.29801943898 -9.7814321518 0.024219075218
          -0.11566893011 -6.0370287895 1.8979899323e-05 2.3115625381 -14.834651947 0.33970710635
          10.274557114 -19.514902115 -1.7475384084e-05 -0.24840708077 -7.8348836899 -0.083231419325
          -0.084708154202 -1.8126913309 5.5751270338e-06 7.98635149 -19.220069885 -0.38878908753
          14.842458725 -20.038852692 0.30343335867 0.95055824518 -14.718789101 9.4790420917e-06
          -0.091446146369 -2.8905062675 0.1771364212 -0.12664176524 -4.4356989861 -0.12984091043
          -0.26278197765 -9.7749576569 1.9280569177e-05 5.1631002426 -16.795558929 0.31559973955
          0 0 0 7.9888930321 -19.276891708 -0.18487347662
          -0.084506653249 -2.9240438938 0.095314070582 12.557992935 -19.752925873 0.26728236675
          -0.9322232008 -11.750582695 0.14187934995 0.0063156196848 -13.239398956 0.11370063573
          -0.061632897705 -0.86117196083 -0.040864266455 3.9289193153 -16.696073532 0.14285610616
          -0.10766425729 -6.0235819817 -0.072035424411 10.280342102 -19.500679016 0.23032301664
          7.9889044762 -19.29209137 -1.0958058738e-05 2.746966362 -16.702913284 -0.35031187534
          -0.076532691717 -7.7515249252 0.15730766952 -0.087741717696 -2.9320867062 8.5097353804e-06
          -0.091677837074 -1.8041713238 -0.075649939477 -0.073159024119 -7.788769722 0.079182736576
          1.0903128386 -14.822170258 0.15034525096 2.713559866 -16.661487579 -0.16561542451
          -0.29802075028 -9.7814378738 -0.024180842564 5.6737036705 -18.992671967 -0.29445582628