<?xml version="1.0"?>
<VTKFile type="UnstructuredGrid" version="0.1" byte_order="LittleEndian" header_type="UInt32" compressor="vtkZLibDataCompressor">
  <UnstructuredGrid>
    <Piece NumberOfPoints="6405" NumberOfCells="4800">
      <PointData>
        <DataArray type="Float32" Name="DISPLACEMENT" NumberOfComponents="3" ComponentName0="X-DISPLACEMENT" ComponentName1="Y-DISPLACEMENT" ComponentName2="Z-DISPLACEMENT" format="ascii" RangeMin="0" RangeMax="392.79137194">
          0 0 0 0 0 0
          2.7674953938 -1.5701996088 -1.2811902761 0 0 0
          1.6104513407 -0.86728334427 -0.86952471733 0 0 0
          2.5407221317 -1.8115739822 -0.50584769249 1.3995622396 -1.0769245625 -0.3544164598
          0 0 0 5.0547537804 -3.2580981255 -1.3254550695
          0 0 0 4.9868121147 -3.5454864502 -0.67413556576
          3.2429187298 -2.7125880718 -0.97527652979 0 0 0
          0 0 0 2.5570898056 -1.8816896677 3.5745458149e-08
          0.85045593977 -0.56222599745 -0.51081246138 1.392791748 -1.1146792173 1.4470782794e-08
          3.1677145958 -2.9550671577 -0.49550044537 0.71463441849 -0.76504606009 -0.21293237805
          4.9354171753 -3.6242127419 6.8900554595e-08 1.7330509424 -2.3452482224 -0.61328065395
          0 0 0 3.1241564751 -3.0281672478 3.0298707543e-08
          1.6572700739 -2.5680882931 -0.31450691819 0 0 0
          7.1174359322 -5.6543440819 -1.2383913994 0 0 0
          0.70920544863 -0.7988229394 -6.9398446989e-09 0 0 0
          0 0 0 2.5407221317 -1.811573863 0.50584775209
          4.7685956955 -5.1415743828 -0.94260078669 7.1348223686 -5.8770961761 -0.62557280064
          0.037046983838 -0.50234341621 -0.1312032342 1.3995622396 -1.0769244432 0.3544164896
          4.777279377 -5.3508272171 -0.4780985415 -0.054856710136 -0.72165352106 -0.071793727577
          1.6271904707 -2.6321852207 -1.0091563141e-08 4.9868121147 -3.5454864502 0.67413574457
          0 0 0 0 0 0
          0.21205304563 -2.2136323452 -0.27578911185 2.7023582458 -4.8017048836 -0.65582746267
          7.1133475304 -5.9511737823 1.0405048556e-07 3.1677145958 -2.9550671577 0.49550050497
          2.6690192223 -4.992770195 -0.33175423741 0.71463441849 -0.76504600048 0.21293236315
          4.7635750771 -5.4154815674 4.9431712057e-08 0.12445917726 -2.426543951 -0.14582839608
          -0.0702355057 -0.76621103287 -3.6421848648e-08 0 0 0
          8.9926671982 -8.4996500015 -1.0962982178 0 0 0
          6.2276134491 -8.0332164764 -0.87941229343 1.6572700739 -2.5680882931 0.31450688839
          9.0373458862 -8.6623382568 -0.55195349455 2.7674953938 -1.5701996088 1.2811902761
          0 0 0 0 0 0
          0.10109361261 -2.4910478592 -5.6407397864e-08 2.652872324 -5.0497841835 -6.8337464576e-09
          -0.83087235689 -0.68499070406 0.24007837474 6.2608747482 -8.1904239655 -0.44176495075
          1.6104513407 -0.86728322506 0.86952471733 0.62619280815 -4.6409044266 -0.3997245729
          0 0 0 7.1348223686 -5.8770961761 0.62557297945
          -0.91247540712 -0.91728186607 0.089999951422 0.55492961407 -4.8079147339 -0.20339523256
          4.777279377 -5.3508272171 0.47809863091 -0.054856695235 -0.72165346146 0.071793653071
          3.7135689259 -7.7071967125 -0.66919451952 -1.2029503584 -2.3224887848 -0.019804991782
          9.031835556 -8.7157869339 1.4022690209e-07 5.0547537804 -3.2580981255 1.3254551888
          0 0 0 0 0 0
          3.7010705471 -7.8488049507 -0.33615395427 3.2429189682 -2.7125880718 0.97527658939
          6.2635006905 -8.2407312393 7.2591141986e-08 -1.3351691961 -2.511903286 -0.0033606840298
          0.85045593977 -0.56222593784 0.51081240177 -0.94357180595 -0.97472941875 -7.9402610709e-08
          0.53349721432 -4.8607096672 -6.7839735607e-08 2.6690192223 -4.992770195 0.33175420761
          0.12445919216 -2.426543951 0.14582829177 3.6943469048 -7.8939428329 3.4285154715e-09
          1.7330509424 -2.3452479839 0.61328065395 -1.3576109409 -2.5781071186 -1.1300357983e-07
          1.2246164083 -7.5367136002 -0.49849960208 9.0373458862 -8.6623382568 0.55195379257
          7.1174359322 -5.6543440819 1.2383916378 0 0 0
          10.677696228 -11.66247654 -0.97252511978 0 0 0
          0 0 0 -1.190130353 -4.7203073502 -0.25534275174
          1.1738541126 -7.6480674744 -0.25003218651 10.722583771 -11.774583817 -0.48700758815
          7.6079950333 -11.234238625 -0.82115316391 6.2608747482 -8.1904239655 0.44176506996
          -1.6055470705 -1.0450012684 0.66718512774 0 0 0
          4.7685956955 -5.1415739059 0.94260084629 0.037046983838 -0.502343297 0.13120315969
          -1.3156065941 -4.8280735016 -0.1188621968 -0.91247540712 -0.91728180647 -0.090000092983
          -1.640327096 -1.3199232817 0.26549264789 0.55492961407 -4.8079147339 0.20339509845
          7.6429142952 -11.344679832 -0.40995615721 3.7010705471 -7.8488049507 0.33615395427
          1.1595000029 -7.6876692772 -7.0045302891e-08 10.724222183 -11.811804771 1.7756195803e-07
          -2.5846278667 -2.5809054375 0.17619894445 -1.3351691961 -2.511903286 0.0033604584169
          0 0 0 4.750459671 -10.919611931 -0.67503756285
          0.21205304563 -2.2136323452 0.27578899264 2.7023582458 -4.8017044067 0.65582746267
          -1.3422716856 -4.8744940758 -1.3702612023e-07 7.6502709389 -11.380003929 9.9770169015e-08
          -1.6438084841 -1.3964085579 -1.6973719141e-07 -2.7900555134 -2.7350344658 0.10043931752
          4.7482070923 -11.015620232 -0.33747175336 8.9926671982 -8.4996500015 1.0962984562
          0 0 0 -0.90648454428 -7.6091098785 -0.45034384727
          6.2276134491 -8.0332164764 0.87941247225 -2.7906119823 -2.7934184074 -1.9325038636e-07
          -1.0043992996 -7.6469326019 -0.2159653604 4.7474164963 -11.047102928 2.0536269574e-08
          -0.8308724165 -0.68499058485 -0.24007852376 1.1738542318 -7.6480674744 0.2500320375
          1.9472616911 -10.735059738 -0.56948250532 10.722583771 -11.774583817 0.48700794578
          -2.7870266438 -5.0511345863 -0.30903077126 0.62619286776 -4.6409044266 0.39972442389
          0 0 0 -1.3156065941 -4.8280735016 0.11886192113
          1.9159806967 -10.799926758 -0.28445464373 -1.6403272152 -1.3199232817 -0.26549294591
          -2.9781196117 -5.0452504158 -0.13063716888 7.6429142952 -11.344679832 0.40995636582
          3.7135689259 -7.7071967125 0.66919451952 -1.2029504776 -2.3224885464 0.019804764539
          12.196712494 -15.031710625 -0.87569850683 0 0 0
          -1.0269719362 -7.6763949394 -1.5085862515e-07 8.9128112793 -14.635498047 -0.77374488115
          12.234050751 -15.106758118 -0.43755102158 0 0 0
          -1.5627037287 -1.4841058254 1.0104758739 8.9427690506 -14.709602356 -0.38532361388
          1.9091359377 -10.82616806 -6.2810570967e-08 -1.5437327623 -1.7779219151 0.3523286283
          -2.7900555134 -2.7350344658 -0.10043969005 -3.001749754 -5.0751614571 -2.2142167211e-07
          4.7482070923 -11.015620232 0.33747181296 5.7980065346 -14.328845978 -0.67557018995
          -3.5998728275 -3.0550527573 0.30545052886 12.237765312 -15.131557465 2.1643204207e-07
          0 0 0 -3.9079086781 -3.1500151157 0.12457925081
          5.8017997742 -14.389871597 -0.33703768253 8.9505243301 -14.733045578 1.3113630359e-07
          -1.7582483292 -1.9230012894 -5.325479151e-07 1.2246164083 -7.5367136002 0.49849945307
          -0.43469026685 -10.790259361 -0.58832591772 10.677696228 -11.66247654 0.97252547741
          0 0 0 -2.5965270996 -8.0225296021 -0.62409323454
          -1.0043992996 -7.6469326019 0.21596504748 -1.190130353 -4.7203068733 0.25534245372
          7.6079950333 -11.234238625 0.82115334272 -1.6055473089 -1.0450011492 -0.66718536615
          -2.7205147743 -7.9427528381 -0.29039725661 -0.49771562219 -10.78010273 -0.28552240133
          1.9159806967 -10.799926758 0.28445452452 -2.9781198502 -5.0452504158 0.13063672185
          5.804002285 -14.409993172 4.4381600617e-08 -3.8038284779 -3.2062380314 -3.9868297108e-07
          2.7673842907 -14.133338928 -0.61668729782 -4.0657567978 -5.6597204208 -0.75112956762
          -2.5846281052 -2.5809049606 -0.17619927227 12.234050751 -15.106758118 0.43755146861
          4.750459671 -10.919611931 0.67503762245 0 0 0
          -0.51222026348 -10.795977592 -1.5290720512e-07 -2.7407472134 -7.9571523666 -2.4669930099e-07
          2.7523422241 -14.164984703 -0.30683535337 8.9427690506 -14.709602356 0.3853238821
          -4.2391710281 -5.4586830139 -0.32290652394 -1.5437327623 -1.7779220343 -0.35232937336
          -0.90648454428 -7.6091094017 0.45034351945 2.7508516312 -14.180375099 -4.6092644368e-08
          5.8017997742 -14.389871597 0.33703777194 -3.9079089165 -3.1500151157 -0.12457986921
          -4.2307395935 -5.4689183235 -3.0569904652e-07 13.58405304 -18.531618118 -0.80429798365
          0 0 0 13.612966537 -18.581068039 -0.40153414011
          1.9472618103 -10.735058784 0.56948238611 10.153015137 -18.159490585 -0.73646521568
          -2.7870268822 -5.0511345863 0.30903032422 -2.240511179 -11.208453178 -0.79486602545
          -0.99597138166 -2.4760792255 0.70902609825 -2.7205147743 -7.9427528381 0.29039677978
          -0.49771562219 -10.78010273 0.28552210331 0 0 0
          10.17706871 -18.20825386 -0.36657509208 -2.3054506779 -11.099599838 -0.38199150562
          0.024018291384 -0.10738074034 0.013746214099 0.18662908673 -14.163439751 -0.66780018806
          -3.636228323 -8.8040189743 -1.0076743364 12.196713448 -15.031710625 0.87569898367
          0 0 0 8.9128112793 -14.635497093 0.77374511957
          13.617084503 -18.597284317 2.5703971573e-07 -3.6855647564 -8.6506185532 -0.48385950923
          0.15608774126 -14.127486229 -0.32650089264 -1.5627036095 -1.4841057062 -1.01047647
          6.8504776955 -17.855987549 -0.67129141092 -1.7666115761 -4.4238286018 0.3198877275
          0 0 0 2.7523422241 -14.164984703 0.30683526397
          -4.2391710281 -5.4586830139 0.32290589809 10.18392086 -18.223297119 1.6653343948e-07
          -2.3157193661 -11.100726128 -2.5775992185e-07 6.8579697609 -17.893548965 -0.33459568024
          -1.5273493528 -4.5250058174 0.30607786775 0.030710844323 -0.084211409092 -3.0189810651e-09
          5.7980065346 -14.328845978 0.67557024956 -3.5998733044 -3.0550525188 -0.30545082688
          0.14999544621 -14.13313961 -1.4289355477e-07 -3.6546323299 -8.6634407043 -3.7074053694e-07
          -0.43469023705 -10.790259361 0.5883256197 6.8615927696 -17.905622482 7.4687079632e-08
          -1.290168047 -4.4181323051 -2.6571797207e-07 -2.5965270996 -8.0225286484 0.6240927577
          13.612966537 -18.581068039 0.40153464675 3.6499826908 -17.645086288 -0.63942074776
          0 0 0 -4.1334176064 -9.9415102005 -0.84690707922
          3.6468522549 -17.656787872 -0.31819620728 10.17706871 -18.20825386 0.36657544971
          0.024018283933 -0.10738071799 -0.013746217825 -2.3054506779 -11.099598885 0.38199099898
          -4.2782635689 -10.647621155 -0.53403770924 2.7673845291 -14.133337975 0.61668717861
          -1.7680908442 -14.532176018 -0.8703545332 0.15608775616 -14.127486229 0.32650059462
          -4.0657567978 -5.659719944 0.75112891197 -3.6855647564 -8.6506185532 0.48385879397
          -3.2232453823 -12.067625999 -1.1267380714 -1.790025115 -14.416545868 -0.42544403672
          3.6484525204 -17.664573669 -2.0540570134e-08 6.8579697609 -17.893548965 0.33459582925
          -1.5273495913 -4.5250058174 -0.3060785532 -3.2298748493 -11.920918465 -0.5587233305
          -4.2886772156 -10.983890533 -4.0886234842e-07 14.874708176 -22.112039566 -0.75426691771
          0 0 0 -0.85925149918 -2.8569865227 -0.051151234657
          -1.7897744179 -14.409344673 -2.5188901986e-07 0.89292776585 -17.63463974 -0.69912189245
          11.34268856 -21.756715775 -0.70806801319 13.58405304 -18.531618118 0.80429852009
          0 0 0 0 0 0
          -3.1977212429 -11.927390099 -3.8521767465e-07 -4.5343747139 -9.4459381104 -1.1597003937
          14.896094322 -22.145347595 -0.37647160888 0.88582271338 -17.589080811 -0.3442607522
          11.361246109 -21.789495468 -0.35252740979 10.153015137 -18.159490585 0.73646551371
          -0.05641997233 -0.11528595537 0.0035384469666 -2.240511179 -11.208452225 0.79486554861
          -0.9959718585 -2.4760792255 -0.70902639627 -4.5811376572 -9.3748559952 -0.64041227102
          3.6468522549 -17.656787872 0.31819614768 -4.2782645226 -10.647621155 0.53403681517
          7.9040932655 -21.453659058 -0.66361409426 0.18662914634 -14.163439751 0.66779989004
          -3.6362280846 -8.8040180206 1.0076736212 0 0 0
          -2.0091609955 -5.8194346428 0.29185003042 14.900104523 -22.156145096 2.9990061989e-07
          -0.041059520096 -0.084252536297 -6.8318741775e-09 0.88601285219 -17.588779449 -1.212710572e-07
          7.9134297371 -21.477325439 -0.33068570495 6.8504776955 -17.855987549 0.67129158974
          11.366951942 -21.799303055 2.0632199949e-07 -1.7666122913 -4.423828125 -0.31988856196
          -4.5342922211 -9.3680648804 -5.4648535297e-07 -2.0552549362 -6.0312080383 0.061775386333
          -1.7900249958 -14.416545868 0.42544353008 -3.2298748493 -11.920918465 0.55872255564
          -2.8331041336 -15.340658188 -1.173438549 7.9175815582 -21.484617233 1.1139195522e-07
          -1.9482638836 -5.9022054672 -4.1783104621e-07 -2.8054807186 -15.193616867 -0.58455348015
          4.57376194 -21.226764679 -0.64638233185 0 0 0
          -3.1331660748 -10.547424316 -0.33980634809 14.896094322 -22.145347595 0.37647220492
          -0.05641997233 -0.11528594047 -0.00353846699 0.88582271338 -17.589078903 0.34426048398
          4.5783600807 -21.228652954 -0.32159489393 3.6499829292 -17.645086288 0.63942068815
          11.361246109 -21.789495468 0.35252782702 -1.1970434189 -17.942762375 -0.8930157423
          -3.9621779919 -13.023989677 -1.4264228344 -4.13341856 -9.9415092468 0.8469055891
          -2.8434922695 -11.178425789 -0.17079457641 -4.5811376572 -9.3748559952 0.64041113853
          -1.1879284382 -17.831420898 -0.43829071522 -3.8764739037 -12.922383308 -0.72868442535
          -2.7732594013 -15.187602997 -3.7467103198e-07 -1.7680907249 -14.532176018 0.87035405636
          7.9134297371 -21.477325439 0.33068594337 -3.2232453823 -12.067625999 1.1267373562
          4.5817914009 -21.232204437 1.3500844886e-08 -2.0552551746 -6.0312080383 -0.061776246876
          -2.6790122986 -11.46142292 -8.948745176e-07 -1.1793749332 -17.820901871 -2.3116871262e-07
          -3.7710630894 -12.964566231 -5.2450985777e-07 -3.1594407558 -9.4782848358 -0.36316037178
          1.6662350893 -21.173151016 -0.70385885239 14.874708176 -22.112037659 0.75426751375
          0 0 0 -2.8054804802 -15.193616867 0.58455276489
          -0.85925191641 -2.8569862843 0.051150936633 -3.1427335739 -10.223096848 -0.32764700055
          0.89292782545 -17.63463974 0.69912165403 11.34268856 -21.756713867 0.70806843042
          1.6743103266 -21.127658844 -0.3478321135 16.099349976 -25.743558884 -0.72164177895
          0 0 0 -4.5343747139 -9.4459371567 1.1596992016
          16.114459991 -25.768161774 -0.36018362641 -0.56079435349 -2.9412558079 -0.26544618607
          12.494831085 -25.399187088 -0.68721503019 4.5783600807 -21.228651047 0.32159492373
          0 0 0 -2.8434927464 -11.178424835 0.17079265416
          12.50865078 -25.423362732 -0.34234246612 -0.69198834896 -2.556470871 -0.23907610774
          -1.1879284382 -17.831420898 0.43829023838 -3.8764736652 -12.922383308 0.72868341208
          7.9040932655 -21.453659058 0.66361433268 -3.0930261612 -10.604926109 -8.5060071342e-07
          1.6788784266 -21.124681473 -8.9108496582e-08 -2.0091619492 -5.819434166 -0.2918510437
          -2.3678376675 -18.653629303 -1.1623139381 -1.4719641209 -6.7893805504 0.23512691259
          8.9547834396 -25.095378876 -0.65410709381 -3.4157710075 -16.413976669 -1.468947053
          16.11819458 -25.776044846 3.4559079154e-07 0 0 0
          -2.3111419678 -18.523099899 -0.5767095089 12.513243675 -25.430448532 2.5056991149e-07
          -0.71149265766 -2.2980825901 -2.9477845942e-07 8.9647226334 -25.112379074 -0.32596817613
          -1.6986051798 -6.6943778992 0.0047295186669 -3.2960205078 -16.304149628 -0.72533845901
          -2.8331041336 -15.340658188 1.1734378338 -2.2794795036 -18.509576797 -3.4995977671e-07
          -3.5784907341 -14.385520935 -1.7062413692 -3.1427335739 -10.223095894 0.32764494419
          -0.54325479269 -21.396114349 -0.87478107214 8.9688806534 -25.11740303 1.542896797e-07
          4.57376194 -21.226764679 0.64638239145 1.6743103266 -21.127658844 0.34783196449
          -3.2107899189 -16.314367294 -5.0779925687e-07 -1.7317492962 -6.6778030396 -6.8081817517e-07
          -3.1331675053 -10.547422409 0.33980438113 16.114459991 -25.768159866 0.36018434167
          5.523651123 -24.853862762 -0.64221513271 -3.4527540207 -14.349186897 -0.84326773882
          -2.5119957924 -9.7520465851 -0.66644215584 -0.51317816973 -21.299436569 -0.43108397722
          -1.1970434189 -17.942762375 0.89301526546 -3.9621777534 -13.023989677 1.4264217615
          0 0 0 -2.6954081059 -10.326272964 -0.18194508553
          12.50865078 -25.423362732 0.34234297276 -0.69198828936 -2.556470871 0.2390755266
          5.5331940651 -24.853097916 -0.31981664896 -3.3911895752 -14.377414703 -6.9530244673e-07
          -0.49934381247 -21.288637161 -1.978476547e-07 -2.3111419678 -18.523099899 0.57670879364
          5.5376405716 -24.855041504 5.5460805726e-08 -2.8581483364 -10.630887985 -1.2233969073e-06
          8.9647226334 -25.112379074 0.32596850395 -1.6986050606 -6.6943778992 -0.0047308756039
          -3.2960202694 -16.304149628 0.72533744574 -3.1594414711 -9.4782819748 0.36315697432
          1.6662352085 -21.173151016 0.70385867357 2.4851372242 -24.749830246 -0.69082510471
          16.099349976 -25.743558884 0.7216424942 0 0 0
          -2.7246727943 -15.67347908 -0.32818686962 -0.5607945919 -2.9412555695 0.26544564962
          12.494831085 -25.399185181 0.68721550703 -3.4527540207 -14.349186897 0.84326636791
          -0.51317811012 -21.299436569 0.43108355999 2.5028307438 -24.711261749 -0.34252163768
          -2.8776769638 -19.640497208 -1.3831017017 -2.8284056187 -15.237462044 -0.22424055636
          -2.6954073906 -10.326272011 0.18194310367 5.5331940651 -24.853097916 0.31981676817
          -2.7436850071 -19.558401108 -0.68435835838 -1.8065965176 -21.946228027 -1.0926167965
          -3.0414326191 -17.94653511 -1.658804059 17.28286171 -29.412530899 -0.70265513659
          0 0 0 13.62019825 -29.074571609 -0.67250150442
          -2.3678376675 -18.653629303 1.1623133421 -1.4719640017 -6.7893805504 -0.23512811959
          8.9547834396 -25.095378876 0.65410739183 -2.9206731319 -17.845941544 -0.80416017771
          -1.730807066 -21.846731186 -0.54226130247 -3.4157707691 -16.413976669 1.4689460993
          17.292999268 -29.434070587 -0.3507399261 0 0 0
          -2.897238493 -14.784345627 -1.1919059943e-06 2.5100810528 -24.708440781 -4.7093884348e-08
          0.0018758316291 -3.2310652733 0.00086231698515 13.630172729 -29.095726013 -0.33524730802
          0.0019582712557 -3.2077844143 0.0011506601004 -2.6812894344 -19.551645279 -4.7255068125e-07
          9.9995718002 -28.769443512 -0.64354175329 -2.9061944485 -17.796821594 -6.4465695004e-07
          -1.701957345 -21.832086563 -3.1142766943e-07 17.296401978 -29.44093132 3.9407663621e-07
          0 0 0 -0.0013515596511 -6.9267263412 0.0055551640689
          10.009523392 -28.785053253 -0.32081490755 13.633788109 -29.101964951 2.9896895626e-07
          -3.5784907341 -14.385520935 1.7062400579 -0.54325467348 -21.396114349 0.87478065491
          0.0028630262241 -3.1006610394 -3.9110506123e-07 0.00042683037464 -6.9325294495 0.0044855340384
          5.523651123 -24.853862762 0.64221525192 -2.5119948387 -9.7520437241 0.66644102335
          -2.8519089222 -14.089776993 -0.41113808751 0.18629102409 -24.874393463 -0.83535969257
          -2.8284051418 -15.237464905 0.22423778474 2.5028307438 -24.711261749 0.34252154827
          -2.9725089073 -14.49198246 -0.34795618057 0.22965908051 -24.799108505 -0.41133400798
          -2.7436847687 -19.558401108 0.68435740471 10.013418198 -28.78969574 2.0277890656e-07
          -0.00047976325732 -6.9990262985 -7.7218368233e-07 6.4838728905 -28.516124725 -0.6311198473
          -2.9206728935 -17.845941544 0.80415892601 -1.7308069468 -21.846731186 0.54226070642
          17.292999268 -29.434070587 0.35074070096 0 0 0
          0.0035042520612 -10.480362892 0.0037020312157 6.496609211 -28.517662048 -0.31448662281
          13.630173683 -29.095724106 0.33524793386 0.0022714573424 -10.759028435 -0.0042325253598
          -2.9837837219 -14.642242432 -1.0348793467e-06 0.24611827731 -24.790384293 -1.5320780733e-07
          0.0019584102556 -3.2077841759 -0.0011513846694 10.009524345 -28.785051346 0.32081532478
          6.5014619827 -28.52000618 1.045443625e-07 0.0072631840594 -10.795817375 -1.101429234e-06
          2.4851372242 -24.749830246 0.6908249855 -2.3174116611 -22.713212967 -1.2205519676
          0.00042726346874 -6.9325294495 -0.004486927297 -2.7246711254 -15.673483849 0.32818248868
          -2.6361665726 -20.830404282 -1.4480391741 -2.1834383011 -22.681756973 -0.61004722118
          -2.8776767254 -19.640497208 1.3831007481 -2.4998414516 -20.82544899 -0.71591234207
          -2.9725084305 -14.49198246 0.34795406461 0.22965912521 -24.799108505 0.41133370996
          -1.8065962791 -21.946228027 1.0926162004 -3.0414321423 -17.94653511 1.6588028669
          -0.035949409008 -16.09715271 -0.033502873033 3.3472371101 -28.372341156 -0.66799902916
          17.28286171 -29.412530899 0.70265591145 0 0 0
          13.62019825 -29.074571609 0.67250210047 -0.016892688349 -16.203804016 -0.018518617377
          -2.1388347149 -22.675710678 -4.2511848619e-07 -2.2072143555 -19.557619095 -1.5847715139
          -1.1418157816 -25.23548317 -0.98200488091 3.3713471889 -28.345417023 -0.33098989725
          0.0018757759826 -3.2310652733 -0.00086293031927 -2.493686676 -20.791172028 -5.8556264548e-07
          6.4966096878 -28.517662048 0.31448683143 0.0022720412817 -10.759027481 0.0042302403599
          -1.0583869219 -25.174310684 -0.49003779888 -2.0825600624 -19.588951111 -0.76868450642
          9.9995718002 -28.769443512 0.64354217052 -0.01175916288 -16.128284454 -1.0690804402e-06
          3.3796339035 -28.344457626 3.7477265735e-09 -0.001351189916 -6.9267258644 -0.0055563841015
          -1.0325651169 -25.16295433 -2.6192350333e-07 18.444425583 -33.116966248 -0.6938418746
          0 0 0 -2.1433451176 -19.467378616 -7.3967117942e-07
          18.450843811 -33.139533997 -0.34639206529 0 0 0
          -2.1834383011 -22.681756973 0.61004638672 14.727415085 -32.781951904 -0.66250395775
          -2.8519074917 -14.089776993 0.41113606095 0.1862911433 -24.874393463 0.83535939455
          0.5689471364 -2.9428963661 0.26885065436 -2.4998409748 -20.82544899 0.71591120958
          14.734464645 -32.804149628 -0.33049708605 0.70777630806 -2.5490915775 0.24228443205
          6.4838733673 -28.516124725 0.63112008572 18.453920364 -33.14673996 4.4547769562e-07
          -0.016891475767 -16.203805923 0.018516257405 11.035984039 -32.475147247 -0.63222777843
          1.4893440008 -6.7990407944 -0.23667085171 3.3713474274 -28.345415115 0.33098989725
          0 0 0 0.99364340305 -28.403617859 -0.77381849289
          -0.047583054751 -13.570437431 -0.0013770557707 0.0035046939738 -10.480361938 -0.0037037115544
          1.7221224308 -6.6965589523 -0.0028472233098 11.045620918 -32.493247986 -0.31536135077
          14.737283707 -32.810878754 3.5122636177e-07 -1.0583869219 -25.174310684 0.49003726244
          -0.026003420353 -13.715477943 -0.0052074966952 1.0451642275 -28.353965759 -0.38181293011
          -2.082559824 -19.588951111 0.7686830163 0.72450703382 -2.2870500088 -3.3441344272e-07
          -2.1163706779 -23.543418884 -1.1721599102 11.049117088 -32.498817444 2.560838368e-07
          -2.3174114227 -22.71321106 1.2205511332 1.7515625954 -6.6828489304 -6.4172849079e-07
          -0.021390875801 -13.7038908 -6.349208661e-07 -1.9863055944 -23.632513046 -0.5912629962
          1.0615795851 -28.348997116 -9.9507182938e-08 -2.6361660957 -20.830404282 1.448037982
          18.450843811 -33.139533997 0.34639295936 7.44526577 -32.210536957 -0.61423689127
          -1.80176723 -21.979269028 -1.1761575937 0 0 0
          2.539714098 -9.689081192 0.72319281101 -1.7039139271 -25.706998825 -1.0271426439
          2.7093493938 -10.280563354 0.20831899345 7.4599208832 -32.218215942 -0.30630499125
          14.734464645 -32.804145813 0.3304977715 -1.6735869646 -22.192705154 -0.57452183962
          -1.5836372375 -25.719833374 -0.5204578042 0.70777648687 -2.5490915775 -0.2422850281
          -0.035946808755 -16.097154617 0.033500112593 3.3472371101 -28.372339249 0.66799908876
          -1.9828778505 -23.630311966 -5.2825640751e-07 -2.2072136402 -19.557617188 1.5847699642
          -1.1418155432 -25.23548317 0.98200440407 7.4647259712 -32.222099304 1.5931375685e-07
          11.045620918 -32.493247986 0.31536185741 -1.722881794 -22.137020111 -6.8103929607e-07
          1.7221229076 -6.6965584755 0.0028459653258 2.8675088882 -10.575298309 -6.9255617063e-07
          -0.026001997292 -13.715478897 0.0052062193863 1.0451642275 -28.353965759 0.38181272149
          -1.551676631 -25.720766068 -3.6801486658e-07 -0.40447887778 -28.579803467 -0.85922861099
          0.022481031716 -20.625974655 -0.022073000669 -0.32180386782 -28.55396843 -0.43067672849
          0.02658265084 -21.177270889 -0.010618932545 18.444425583 -33.116966248 0.69384276867
          0 0 0 -1.986305356 -23.632513046 0.59126192331
          2.7046191692 -15.782406807 0.24262164533 4.2278928757 -32.026412964 -0.63199532032
          2.8435254097 -15.346850395 0.19305694103 14.727415085 -32.781951904 0.662504673
          0.5689470768 -2.9428963661 -0.2688511312 4.255759716 -32.014133453 -0.31408426166
          7.45992136 -32.218215942 0.30630531907 -1.6735867262 -22.192705154 0.57452046871
          2.7093501091 -10.280563354 -0.20832033455 -1.5836371183 -25.719833374 0.52045702934
          -0.29909557104 -28.549739838 -2.0366169906e-07 0.025917306542 -21.084527969 -8.3634211023e-07
          11.035984039 -32.475147247 0.63222831488 1.4893443584 -6.7990407944 0.23666986823
          0.99364358187 -28.403617859 0.77381831408 2.9185881615 -14.895750046 -6.9990636575e-07
          -0.047579992563 -13.570438385 0.001375904656 4.2640805244 -32.01574707 6.0649007594e-08
          19.597993851 -36.863231659 -0.69210475683 0 0 0
          -2.1163702011 -23.543418884 1.1721588373 -0.32180377841 -28.55396843 0.43067634106
          0 0 0 15.822963715 -36.52879715 -0.65588009357
          -1.374845624 -24.170032501 -0.80340695381 0.026583040133 -21.177270889 0.01061721053
          0.89591097832 -2.8632917404 0.047647636384 -1.5509784222 -26.16866684 -0.91281855106
          19.60184288 -36.889575958 -0.34557494521 7.44526577 -32.210536957 0.6142372489
          15.827939987 -36.554767609 -0.32741495967 0.033740375191 -0.068209812045 -0.0022285107989
          -1.801766634 -21.97926712 1.1761562824 -1.2763179541 -24.458929062 -0.40948483348
          2.5397157669 -9.689081192 -0.72319430113 1.8209429979 -31.964643478 -0.69457739592
          2.8435263634 -15.346850395 -0.19305853546 -1.7039135695 -25.706998825 1.0271419287
          2.8578736782 -14.060119629 0.37742090225 4.255759716 -32.014133453 0.31408438087
          -1.4382855892 -26.303594589 -0.46877199411 3.0042338371 -14.464119911 0.33082675934
          1.8751467466 -31.940540314 -0.3448767364 12.062363625 -36.220176697 -0.62067878246
          19.604621887 -36.898040771 4.9921072787e-07 2.075053215 -5.8193688393 -0.31927934289
          0 0 0 12.071426392 -36.243309021 -0.30977216363
          2.1074337959 -6.0276317596 -0.069151967764 15.830154419 -36.562889099 4.0664943413e-07
          -1.0169867277 -28.827196121 -0.85270231962 -1.3024954796 -24.479902267 -6.1092401893e-07
          -1.4327484369 -26.327718735 -4.6135332354e-07 0.027428073809 -22.609489441 -0.01428909041
          0.02434220165 -0.049775268883 2.0634126352e-11 -0.91173732281 -28.873308182 -0.43206298351
          1.8905354738 -31.940412521 -3.9597235713e-08 0.028567234054 -23.100330353 -0.0069195572287
          3.0226509571 -14.621962547 -5.4518631032e-07 -0.40447869897 -28.579801559 0.85922825336
          12.074475288 -36.250640869 3.1321778238e-07 0.022481750697 -20.625974655 0.02207120508
          1.9900979996 -5.8965816498 -5.0791402373e-07 8.4007129669 -35.946575165 -0.59382724762
          19.60184288 -36.889575958 0.34557592869 -0.88763600588 -28.884269714 -3.0287245067e-07
          3.2813043594 -10.471431732 0.32605153322 2.7046210766 -15.782407761 -0.2426237762
          0.027868013829 -23.078170776 -7.4954107276e-07 4.2278933525 -32.026412964 0.63199543953
          0 0 0 8.4160089493 -35.962589264 -0.29638570547
          2.9500286579 -11.140275002 0.15940998495 15.827939987 -36.554767609 0.32741576433
          -1.2763175964 -24.458927155 0.40948361158 -1.4382853508 -26.303594589 0.46877110004
          0.03374036029 -0.068209782243 0.0022285105661 1.8751468658 -31.940538406 0.344876647
          3.004234314 -14.464119911 -0.33082789183 12.071426392 -36.243309021 0.30977278948
          8.4205522537 -35.968845367 2.1849869825e-07 0.37849929929 -31.994802475 -0.73518925905
          2.2706809044 -19.583492279 1.5774559975 2.7651824951 -11.444021225 -5.7762110828e-07
          2.1074337959 -6.0276312828 0.069150984287 2.1437091827 -19.618988037 0.76544880867
          -0.9117372036 -28.873308182 0.43206238747 0.45637503266 -31.997814178 -0.3688839376
          0.028567617759 -23.100330353 0.0069180452265 5.1151413918 -35.726753235 -0.59202229977
          19.597993851 -36.863231659 0.69210577011 0 0 0
          3.2840464115 -9.4050550461 0.29599779844 5.1438202858 -35.730068207 -0.29427951574