<?xml version="1.0"?>
<VTKFile type="UnstructuredGrid" version="0.1" byte_order="LittleEndian" header_type="UInt32" compressor="vtkZLibDataCompressor">
  <UnstructuredGrid>
    <Piece NumberOfPoints="6405" NumberOfCells="4800">
      <PointData>
        <DataArray type="Float32" Name="DISPLACEMENT" NumberOfComponents="3" ComponentName0="X-DISPLACEMENT" ComponentName1="Y-DISPLACEMENT" ComponentName2="Z-DISPLACEMENT" format="ascii" RangeMin="0" RangeMax="451.61589284">
          0 0 0 0 0 0
          2.6018807888 -1.4531841278 -1.2133107185 0 0 0
          1.5871084929 -0.78840309381 -0.86539638042 0 0 0
          2.3760824203 -1.6599876881 -0.48138046265 1.3880648613 -0.96574032307 -0.35335415602
          0 0 0 4.7678041458 -2.8929479122 -1.27303195
          0 0 0 4.6918673515 -3.1406183243 -0.64797139168
          3.1951065063 -2.3675765991 -0.97299820185 0 0 0
          0 0 0 2.3867585659 -1.7242105007 2.6828912425e-09
          0.93579000235 -0.49915748835 -0.57440567017 1.3944189548 -0.99992412329 2.9231477239e-09
          3.1220109463 -2.5726833344 -0.49379143119 0.80228233337 -0.66391682625 -0.23781371117
          4.6411495209 -3.2063019276 2.6380553297e-09 1.893019557 -2.0027618408 -0.67344301939
          0 0 0 3.085640192 -2.6347417831 2.6261468555e-09
          1.8233059645 -2.1872386932 -0.34407231212 0 0 0
          6.7705469131 -4.9293856621 -1.2186988592 0 0 0
          0.81453752518 -0.69543200731 3.0084983393e-09 0 0 0
          0 0 0 2.3760824203 -1.6599876881 0.48138046265
          4.7271776199 -4.41761446 -0.95640450716 6.7749977112 -5.1254277229 -0.61514955759
          0.40038600564 -0.43622258306 -0.29990237951 1.3880648613 -0.96574026346 0.35335415602
          4.7253017426 -4.6015758514 -0.48491731286 0.30634766817 -0.59654057026 -0.12717074156
          1.7966872454 -2.243606329 2.2429875735e-09 4.6918673515 -3.1406183243 0.64797139168
          0 0 0 0 0 0
          0.83241426945 -1.8615248203 -0.40441516042 2.9446742535 -4.060297966 -0.70924735069
          6.7549567223 -5.189909935 2.0911878895e-09 3.1220109463 -2.5726833344 0.49379143119
          2.9143123627 -4.2304286957 -0.35830768943 0.80228233337 -0.66391682625 0.23781371117
          4.7098398209 -4.6586103439 3.9404715046e-09 0.76058268547 -2.035569191 -0.20522136986
          0.30287307501 -0.62926018238 1.508710934e-09 0 0 0
          8.6547298431 -7.3620524406 -1.118927002 0 0 0
          6.2282862663 -6.8769216537 -0.9138455987 1.8233059645 -2.1872386932 0.34407231212
          8.6838512421 -7.516040802 -0.56295609474 2.6018807888 -1.4531841278 1.2133107185
          0 0 0 0 0 0
          0.73777222633 -2.0915572643 -1.3973895652e-10 2.8964629173 -4.2824730873 4.658534003e-09
          -0.1180049181 -0.51306277514 -0.023335408419 6.2478384972 -7.0265779495 -0.45998972654
          1.5871084929 -0.78840309381 0.86539638042 1.4057216644 -3.8782818317 -0.4802826643
          0 0 0 6.7749977112 -5.1254277229 0.61514955759
          -0.18586263061 -0.67068612576 -0.01269606594 1.351631999 -4.0310130119 -0.24162892997
          4.7253017426 -4.6015758514 0.48491734266 0.30634766817 -0.59654057026 0.12717075646
          4.0459413528 -6.5170931816 -0.71750479937 -0.13111889362 -1.9129567146 -0.16354054213
          8.6784954071 -7.566778183 3.7659320107e-09 4.7678041458 -2.8929479122 1.27303195
          0 0 0 0 0 0
          4.0349001884 -6.6571817398 -0.36056274176 3.1951065063 -2.3675765991 0.97299820185
          6.2462778091 -7.0754423141 9.3306136151e-09 -0.22113898396 -2.0749843121 -0.079202629626
          0.93579000235 -0.49915745854 0.57440567017 -0.20590926707 -0.70087373257 -4.4874024496e-09
          1.3311700821 -4.0784292221 2.657376319e-09 2.9143123627 -4.2304286957 0.35830768943
          0.76058268547 -2.035569191 0.20522136986 4.0262346268 -6.7023048401 1.2931827165e-08
          1.893019557 -2.0027618408 0.67344301939 -0.24507473409 -2.1284668446 -7.2215211588e-09
          2.1074204445 -6.3122000694 -0.53945088387 8.6838512421 -7.516040802 0.56295609474
          6.7705469131 -4.9293856621 1.2186988592 0 0 0
          10.414530754 -10.105125427 -1.0338541269 0 0 0
          0 0 0 0.032352358103 -3.8930010796 -0.29384899139
          2.0683887005 -6.4336071014 -0.26981833577 10.44475174 -10.224024773 -0.51783806086
          7.6860666275 -9.6424264908 -0.8745469451 6.2478384972 -7.0265779495 0.45998975635
          -0.69830095768 -0.68284767866 0.27445456386 0 0 0
          4.7271776199 -4.41761446 0.95640450716 0.40038600564 -0.43622255325 0.29990237951
          -0.051727745682 -4.0170068741 -0.14445152879 -0.18586264551 -0.67068606615 0.012696056627
          -0.75874471664 -0.85245394707 0.10548699647 1.351631999 -4.0310130119 0.24162894487
          7.7091474533 -9.7605066299 -0.43800911307 4.0349001884 -6.6571817398 0.36056277156
          2.0537047386 -6.4730210304 1.2865927879e-08 10.445304871 -10.263910294 1.0118009541e-08
          -1.1355139017 -2.1173987389 0.043249499053 -0.22113899887 -2.0749843121 0.079202614725
          0 0 0 5.1785712242 -9.2835083008 -0.72168409824
          0.83241426945 -1.8615248203 0.40441516042 2.9446742535 -4.060297966 0.7092474103
          -0.077188380063 -4.0580687523 -4.7053769769e-09 7.7129974365 -9.7996349335 2.0974018966e-08
          -0.79814428091 -0.89034688473 -2.2245533415e-08 -1.26646173 -2.255603075 0.028606062755
          5.1763334274 -9.3942832947 -0.36081248522 8.6547298431 -7.3620524406 1.118927002
          0 0 0 0.36879432201 -6.2899522781 -0.40244600177
          6.2282862663 -6.8769216537 0.9138455987 -1.295799613 -2.3033368587 -2.321420034e-08
          0.30084019899 -6.3777146339 -0.1990223825 5.174217701 -9.4309501648 2.8994506351e-08
          -0.11800494045 -0.51306277514 0.023335395381 2.0683887005 -6.4336071014 0.26981836557
          2.9062218666 -9.0585460663 -0.58444857597 10.44475174 -10.224024773 0.51783806086
          -1.2945055962 -4.0888438225 -0.17243035138 1.4057216644 -3.8782818317 0.4802826643
          0 0 0 -0.051727753133 -4.0170068741 0.14445151389
          2.8799159527 -9.1518287659 -0.29144281149 -0.75874477625 -0.85245394707 -0.10548704118
          -1.4188001156 -4.1664218903 -0.080302983522 7.7091474533 -9.7605066299 0.43800917268
          4.0459413528 -6.5170931816 0.71750485897 -0.13111890852 -1.9129567146 0.16354052722
          12.063239098 -13.083471298 -0.96661370993 0 0 0
          0.27923226357 -6.4084544182 6.2332863315e-09 9.0986871719 -12.641154289 -0.84247094393
          12.08855629 -13.17595005 -0.483286798 0 0 0
          -1.5834243298 -0.96992194653 0.57960009575 9.1192922592 -12.733699799 -0.4209420383
          2.8711338043 -9.1830425262 3.2373282721e-08 -1.7187919617 -1.1371780634 0.21255944669
          -1.26646173 -2.255603075 -0.028606103733 -1.4517226219 -4.1968522072 -2.0641099496e-08
          5.1763334274 -9.3942832947 0.36081254482 6.3289895058 -12.28366375 -0.72286593914
          -2.346124649 -2.4364345074 0.15375618637 12.090492249 -13.206977844 2.3136669469e-08
          0 0 0 -2.5374517441 -2.5211007595 0.087933912873
          6.3307685852 -12.370526314 -0.36056470871 9.1243181229 -12.76453495 4.0770995469e-08
          -1.8157484531 -1.1908761263 -5.4530811866e-08 2.1074204445 -6.3122000694 0.53945094347
          0.85363692045 -9.0033063889 -0.48652946949 10.414530754 -10.105125427 1.0338541269
          0 0 0 -1.2312095165 -6.4672427177 -0.34075677395
          0.30084019899 -6.3777146339 0.1990223974 0.032352358103 -3.8930010796 0.29384896159
          7.6860666275 -9.6424264908 0.8745470047 -0.69830095768 -0.68284767866 -0.27445459366
          -1.3311399221 -6.4997239113 -0.16512346268 0.80421286821 -9.0626430511 -0.24105630815
          2.8799159527 -9.1518287659 0.29144287109 -1.4188001156 -4.1664214134 0.08030294627
          6.3316001892 -12.399523735 5.4599347266e-08 -2.5756642818 -2.5614080429 -4.4216903916e-08
          3.7795786858 -12.04169178 -0.61651289463 -2.6581802368 -4.4247584343 -0.15090690553
          -1.1355140209 -2.1173987389 -0.043249536306 12.08855629 -13.17595005 0.4832868576
          5.1785712242 -9.2835083008 0.72168421745 0 0 0
          0.78897047043 -9.0850534439 2.8089566229e-08 -1.3602254391 -6.5169911385 -1.0479378254e-08
          3.7633068562 -12.1129179 -0.30695730448 9.1192922592 -12.733699799 0.4209420979
          -2.8303570747 -4.4351930618 -0.070690751076 -1.7187919617 -1.1371780634 -0.2125595361
          0.36879435182 -6.2899522781 0.40244603157 3.7587881088 -12.137180328 6.3086375235e-08
          6.3307685852 -12.370526314 0.36056482792 -2.5374519825 -2.5211007595 -0.08793399483
          -2.8714008331 -4.4534010887 -4.6785590513e-08 13.619802475 -16.243808746 -0.91503119469
          0 0 0 13.638860703 -16.316818237 -0.45772874355
          2.906222105 -9.0585460663 0.58444863558 10.470358849 -15.818615913 -0.8170042634
          -1.2945055962 -4.0888438225 0.17243032157 -0.99202853441 -9.1532449722 -0.46558591723
          -4.0663809776 -0.8885794282 0.39526554942 -1.3311399221 -6.4997239113 0.16512344778
          0.80421286821 -9.0626430511 0.24105636775 0 0 0
          10.486410141 -15.892303467 -0.40810251236 -1.0628710985 -9.1551990509 -0.22789157927
          -4.3335266113 -0.90330791473 0.26588723063 1.4586502314 -11.954140663 -0.54633027315
          -2.7126400471 -6.8435015678 -0.39211007953 12.063239098 -13.083471298 0.96661376953
          0 0 0 9.0986871719 -12.641154289 0.84247106314
          13.641096115 -16.341459274 4.5194749276e-08 -2.8473746777 -6.7944364548 -0.19367809594
          1.4265394211 -11.993638039 -0.27086624503 -1.5834243298 -0.96992188692 -0.57960015535
          7.4897208214 -15.461520195 -0.72207516432 -4.1046681404 -2.7273976803 0.092955827713
          0 0 0 3.7633068562 -12.1129179 0.30695745349
          -2.8303570747 -4.4351930618 0.070690661669 10.490976334 -15.916909218 7.0728340518e-08
          -1.0837675333 -9.1636705399 1.2491640611e-08 7.4927654266 -15.530867577 -0.35981729627
          -4.3202447891 -2.7416582108 0.070608593524 -4.3591961861 -0.98643791676 -2.7223766352e-08
          6.3289895058 -12.28366375 0.72286605835 -2.346124649 -2.4364345074 -0.15375626087
          1.4172867537 -12.009745598 6.3302380227e-08 -2.8808016777 -6.7975764275 -4.1617720825e-08
          0.85363698006 -9.0033063889 0.48652952909 7.4945030212 -15.554055214 9.1742222708e-08
          -4.3768081665 -2.7642679214 -5.5563422308e-08 -1.2312093973 -6.4672427177 0.34075677395
          13.638860703 -16.316818237 0.45772883296 4.70925951 -15.203117371 -0.63707560301
          0 0 0 -4.2780990601 -4.7625432014 -0.25803852081
          4.7003264427 -15.259078979 -0.31708908081 10.486410141 -15.892303467 0.40810266137
          -4.3335266113 -0.90330791473 -0.26588729024 -1.0628709793 -9.1551990509 0.22789160907
          -4.4728431702 -4.706782341 -0.12976229191 3.7795789242 -12.04169178 0.61651301384
          -0.60362356901 -12.063577652 -0.54818558693 1.4265394211 -11.993638039 0.27086639404
          -2.6581802368 -4.4247584343 0.15090683103 -2.8473746777 -6.7944364548 0.19367802143
          -2.5989406109 -9.5473012924 -0.5626142621 -0.64628154039 -12.049566269 -0.27022713423
          4.6984086037 -15.27821064 1.0735249845e-07 7.4927654266 -15.530867577 0.35981747508
          -4.3202447891 -2.7416582108 -0.070608712733 -2.6838691235 -9.463889122 -0.28130173683
          -4.5002598763 -4.7204031944 -8.4109665011e-08 15.102779388 -19.548114777 -0.88155263662
          0 0 0 -1.438616395 -2.2193858624 0.79271769524
          -0.6583429575 -12.053147316 5.1824841307e-08 2.1588304043 -15.082889557 -0.5842435956
          11.808221817 -19.13394165 -0.80012238026 13.619802475 -16.243808746 0.9150313139
          0 0 0 0 0 0
          -2.7051961422 -9.4590749741 -1.9409299057e-08 -4.2478775978 -7.3668780327 -0.64888447523
          15.115638733 -19.608732224 -0.44094118476 2.1410222054 -15.110771179 -0.28983268142
          11.818920135 -19.195545197 -0.39958044887 10.470358849 -15.818615913 0.81700438261
          -1.6113034487 -2.2175769806 0.18419125676 -0.9920284152 -9.1532440186 0.46558594704
          -4.0663809776 -0.8885794282 -0.39526563883 -4.3811173439 -7.2211933136 -0.31471124291
          4.7003264427 -15.259078979 0.31708928943 -4.4728431702 -4.706782341 0.129762128
          8.6579637527 -18.776306152 -0.72073823214 1.4586503506 -11.954140663 0.54633045197
          -2.7126398087 -6.8435015678 0.39211001992 0 0 0
          -4.2003755569 -3.6080214977 -1.0517324209 15.118597984 -19.629207611 7.436948124e-08
          -1.6233043671 -2.2254405022 -1.1831065194e-07 2.1362595558 -15.122953415 1.1430947211e-07
          8.6606025696 -18.834461212 -0.35913050175 7.4897208214 -15.461520195 0.72207534313
          11.822758675 -19.21616745 1.1087070106e-07 -4.1046681404 -2.7273976803 -0.092955954373
          -4.3899121284 -7.2243542671 -9.3534637813e-08 -4.4335756302 -3.1881854534 -0.46713733673
          -0.64628148079 -12.049566269 0.27022725344 -2.6838691235 -9.463889122 0.28130170703
          -2.3439018726 -12.405369759 -0.6599650979 8.6622304916 -18.853876114 1.4261443937e-07
          -4.4298853874 -3.1313035488 2.0435972203e-07 -2.3825101852 -12.318171501 -0.33154821396
          5.681022644 -18.502016068 -0.64894789457 0 0 0
          -3.5808198452 -6.5736885071 -1.5294514894 15.115638733 -19.608732224 0.44094133377
          -1.6113032103 -2.2175769806 -0.18419140577 2.1410224438 -15.110771179 0.28983291984
          5.6769647598 -18.548950195 -0.32302847505 4.7092599869 -15.203117371 0.63707578182
          11.818920135 -19.195545197 0.39958065748 -0.092442475259 -15.142857552 -0.59612548351
          -4.0466856956 -10.14498806 -0.87982344627 -4.2780990601 -4.7625432014 0.2580383122
          -3.5501086712 -6.200884819 -0.66233181953 -4.3811173439 -7.2211933136 0.3147110641
          -0.11195740104 -15.124978065 -0.29482036829 -4.101817131 -9.9751462936 -0.42858085036
          -2.391477108 -12.311602592 2.3359865153e-08 -0.6036233902 -12.063577652 0.54818570614
          8.6606025696 -18.834461212 0.35913079977 -2.5989406109 -9.5473012924 0.5626142621
          5.6765446663 -18.564844131 1.6774559697e-07 -4.4335751534 -3.1881859303 0.46713772416
          -3.4492781162 -6.2719025612 -2.2644346132e-07 -0.11698434502 -15.127280235 1.0964685515e-07
          -4.1017456055 -9.9700660706 -7.6791664583e-08 -3.429312706 -9.3946676254 -1.6454595327
          2.9315285683 -18.349290848 -0.60328263044 15.102779388 -19.548114777 0.88155281544
          0 0 0 -2.3825099468 -12.318171501 0.33154824376
          -1.4386162758 -2.2193858624 -0.79271769524 -3.299885273 -9.1329832077 -0.72706973553
          2.1588306427 -15.082889557 0.58424383402 11.808221817 -19.13394165 0.80012261868
          2.9239513874 -18.372653961 -0.30019670725 16.551763535 -22.973896027 -0.8660274744
          0 0 0 -4.2478775978 -7.3668780327 0.64888429642
          16.558094025 -23.028553009 -0.43251752853 -0.58568704128 -2.861669302 0.16516944766
          13.12960434 -22.563817978 -0.79224938154 5.6769647598 -18.548950195 0.32302883267
          0 0 0 -3.5501081944 -6.200884819 0.6623314023
          13.135037422 -22.619041443 -0.39542251825 -0.67337322235 -2.7852754593 0.07851728797
          -0.11195729673 -15.124978065 0.29482060671 -4.101817131 -9.9751462936 0.42858070135
          8.6579637527 -18.776306152 0.72073853016 -3.2605814934 -9.1235570908 -2.6312815748e-07
          2.9223601818 -18.382978439 1.837335617e-07 -4.2003750801 -3.6080212593 1.0517325401
          -1.939941287 -15.410511017 -0.70219886303 -1.1108312607 -4.7397079468 -0.16270262003
          9.8302497864 -22.205070496 -0.72011822462 -3.6898722649 -12.961548805 -0.95609778166
          16.559988022 -23.046770096 1.1801024158e-07 0 0 0
          -1.9435977936 -15.340205193 -0.35111600161 13.13735199 -22.637369156 1.6722223961e-07
          -0.70549738407 -2.8432354927 -2.0135125567e-07 9.8321275711 -22.257263184 -0.3589785099
          -1.4243932962 -4.9282846451 -0.29311358929 -3.6840274334 -12.826231003 -0.46780887246
          -2.3439016342 -12.405369759 0.65996515751 -1.9436628819 -15.335784912 8.8482664751e-08
          -3.3073136806 -11.710107803 -1.4524812698 -3.2998847961 -9.1329832077 0.72706919909
          0.51874917746 -18.351865768 -0.6144271493 9.8334579468 -22.274522781 2.1128070671e-07
          5.681022644 -18.502016068 0.6489482522 2.9239513874 -18.372653961 0.30019706488
          -3.6779053211 -12.820181847 -3.255146197e-08 -1.3285222054 -4.8573055267 -3.7500697658e-07
          -3.5808193684 -6.5736885071 1.5294511318 16.558095932 -23.028553009 0.43251776695
          6.6855392456 -21.918243408 -0.65478545427 -3.1710834503 -11.601937294 -0.68034279346
          -3.1206166744 -7.8020701408 -2.1026878357 0.51546174288 -18.33924675 -0.30519926548
          -0.092442244291 -15.142857552 0.59612572193 -4.0466852188 -10.14498806 0.87982326746
          0 0 0 -2.7978234291 -7.5082769394 -1.043716073
          13.135037422 -22.619041443 0.39542287588 -0.67337304354 -2.7852754593 -0.078517630696
          6.6845617294 -21.960954666 -0.32632219791 -3.1515946388 -11.583461761 -2.2218083018e-07
          0.51551765203 -18.342453003 1.8872579233e-07 -1.9435976744 -15.340205193 0.35111618042
          6.6850624084 -21.975372314 2.4752694117e-07 -2.7546687126 -7.4696655273 -4.4414221634e-07
          9.8321275711 -22.257263184 0.35897892714 -1.4243930578 -4.9282851219 0.29311281443
          -3.684027195 -12.826231003 0.46780881286 -3.4293119907 -9.3946676254 1.6454590559
          2.9315288067 -18.349290848 0.60328304768 3.7552745342 -21.729072571 -0.61221975088
          16.551763535 -22.973896027 0.86602771282 0 0 0
          -2.055555582 -11.28690815 -1.5277204514 -0.58568698168 -2.861669302 -0.16516970098
          13.12960434 -22.563817978 0.79224973917 -3.1710829735 -11.601937294 0.68034237623
          0.51546192169 -18.33924675 0.30519962311 3.7543509007 -21.752719879 -0.30522221327
          -3.1932635307 -15.858677864 -0.91803461313 -1.8065034151 -11.406183243 -0.76191294193
          -2.7978231907 -7.5082764626 1.0437152386 6.6845622063 -21.960954666 0.32632270455
          -3.1504890919 -15.780317307 -0.45332479477 -1.4138445854 -18.519231796 -0.6946772337
          -3.0259954929 -14.067464828 -1.2143764496 17.987146378 -26.509912491 -0.86049461365
          0 0 0 14.443919182 -26.101354599 -0.78929507732
          -1.9399410486 -15.410511017 0.70219904184 -1.1108307838 -4.7397074699 0.16270187497
          9.8302497864 -22.205070496 0.72011864185 -2.9063653946 -14.075303078 -0.59214192629
          -1.3960031271 -18.474327087 -0.34788265824 -3.6898720264 -12.961548805 0.95609778166
          17.989686966 -26.562675476 -0.42972463369 0 0 0
          -1.8063337803 -11.305148125 -4.8320112001e-07 3.7551393509 -21.76309967 2.7454947826e-07
          0.0058399373665 -2.9064280987 -0.0053780740127 14.446192741 -26.154001236 -0.39409974217
          0.0044341953471 -2.915293932 -0.0020764996298 -3.1412861347 -15.778215408 4.4120167075e-08
          11.005731583 -25.740592957 -0.71984750032 -2.8946428299 -14.069904327 -1.4460711384e-07
          -1.3911203146 -18.47359848 1.7894507209e-07 17.990755081 -26.580093384 1.8418953118e-07
          0 0 0 0.0093105342239 -5.2218327522 -0.0046679791994
          11.007212639 -25.790412903 -0.35908484459 14.44733429 -26.171291351 2.4556527478e-07
          -3.3073132038 -11.710107803 1.452480793 0.51874953508 -18.351865768 0.61442756653
          0.0041066906415 -2.9410216808 -3.4058001575e-07 0.0066702575423 -5.3655209541 -0.0047841193154
          6.6855397224 -21.918243408 0.65478599072 -3.1206161976 -7.802069664 2.1026871204
          -1.9081813097 -13.030250549 -1.0999245644 1.2097887993 -21.669206619 -0.61847496033
          -1.8065028191 -11.406183243 0.76191192865 3.7543511391 -21.752719879 0.30522277951
          -1.7477333546 -13.287098885 -0.56089311838 1.2171601057 -21.666303635 -0.30676355958
          -3.1504888535 -15.780317307 0.45332491398 11.008176804 -25.806810379 3.0125286798e-07
          0.0080687468871 -5.3910770416 -6.8182777113e-07 7.7102479935 -25.444116592 -0.65726304054
          -2.9063649178 -14.075303078 0.59214162827 -1.3960030079 -18.474327087 0.34788301587
          17.989686966 -26.562675476 0.42972502112 0 0 0
          -0.0015680945944 -9.020989418 -0.030712191015 7.7117080688 -25.485990524 -0.32778328657
          14.446192741 -26.154001236 0.39410024881 0.0083382483572 -9.4825363159 -0.013768203557
          -1.7420437336 -13.257908821 -3.8684507331e-07 1.2204588652 -21.671522141 2.9111669164e-07
          0.00443440862 -2.9152941704 0.00207592058 11.007212639 -25.790412903 0.35908547044
          7.7127695084 -25.500356674 3.4956144646e-07 0.0098405806348 -9.481086731 -8.4771988895e-07
          3.7552747726 -21.729072571 0.61222034693 -2.6305894852 -18.814275742 -0.82135999203
          0.0066710012034 -5.3655209541 0.0047827796079 -2.0555546284 -11.28690815 1.5277193785
          -2.6307196617 -16.563985825 -0.98360550404 -2.574432373 -18.786039352 -0.41010269523
          -3.1932632923 -15.858677864 0.91803473234 -2.5304281712 -16.636329651 -0.49336957932
          -1.7477327585 -13.287099838 0.56089234352 1.2171602249 -21.666303635 0.30676412582
          -1.4138442278 -18.519231796 0.69467765093 -3.0259947777 -14.067464828 1.2143762112
          0.017173897475 -12.194935799 -0.0079158795998 4.6349630356 -25.229883194 -0.61548984051
          17.987146378 -26.509914398 0.86049503088 0 0 0
          14.443919182 -26.101354599 0.78929561377 0.018278604373 -12.743865013 -0.0039585544728
          -2.5635223389 -18.790113449 1.5128806297e-07 -1.7103289366 -14.904476166 -0.8091738224
          -0.79786479473 -21.73859024 -0.6616011858 4.6393861771 -25.25727272 -0.30622425675
          0.0058400160633 -2.9064280987 0.0053776153363 -2.5213646889 -16.646446228 -3.4456178355e-08
          7.7117080688 -25.485990524 0.32778397202 0.0083393957466 -9.4825363159 0.013766052201
          -0.76948946714 -21.720291138 -0.33174803853 -1.6029627323 -15.19509697 -0.42121803761
          11.005731583 -25.740592957 0.71984815598 0.018283551559 -12.684662819 -7.0120654527e-07
          4.6414022446 -25.268714905 3.8913725575e-07 0.0093111945316 -5.2218327522 0.0046671424061
          -0.76203817129 -21.723693848 2.951852025e-07 19.41686058 -30.154024124 -0.85963273048
          0 0 0 -1.5978987217 -15.21594429 -2.5697099204e-07
          19.41742897 -30.206916809 -0.42942541838 0 0 0
          -2.5744321346 -18.786039352 0.41010302305 15.754989624 -29.745492935 -0.78831708431
          -1.9081802368 -13.030250549 1.0999237299 1.2097892761 -21.669206619 0.61847555637
          0.59970062971 -2.8653485775 -0.17512103915 -2.5304276943 -16.636329651 0.49336951971
          15.755659103 -29.798038483 -0.3938318789 0.6847589612 -2.7896401882 -0.083108730614
          7.7102484703 -25.444116592 0.6572637558 19.418075562 -30.224309921 2.7074628406e-07
          0.018279295415 -12.743865013 0.0039570713416 12.184380531 -29.381797791 -0.71886235476
          1.132876873 -4.7443356514 0.1468244046 4.6393866539 -25.25727272 0.30622506142
          0 0 0 1.9817503691 -25.1171875 -0.60660362244
          0.017090588808 -13.585868835 -0.0062811896205 -0.0015655199531 -9.020989418 0.030708970502
          1.4474557638 -4.9355273247 0.28578335047 12.185956955 -29.43185997 -0.35884946585
          15.756129265 -29.815263748 3.455200499e-07 -0.76948928833 -21.720291138 0.33174863458
          0.017454378307 -14.07943821 -0.0031679491512 1.9968589544 -25.126993179 -0.30113479495
          -1.6029621363 -15.19509697 0.42121753097 0.71715450287 -2.8480682373 -3.3404140254e-07
          -2.1697149277 -19.251955032 -0.79231548309 12.186689377 -29.448364258 4.1392365802e-07
          -2.6305890083 -18.814275742 0.82136034966 1.350943327 -4.8643746376 -6.1163717646e-07
          0.017402138561 -14.086640358 -5.1588125416e-07 -2.0859689713 -19.353229523 -0.40223607421
          2.0015192032 -25.134681702 4.1874685053e-07 -2.6307189465 -16.563983917 0.98360550404
          19.41742897 -30.206916809 0.42942598462 8.7499732971 -29.074134827 -0.65534198284
          -1.4641690254 -17.072191238 -0.60989362001 0 0 0
          3.1616230011 -7.8110260963 2.1042571068 -2.020318985 -21.900112152 -0.71925640106
          2.8361227512 -7.516998291 1.0436646938 8.7535409927 -29.118028641 -0.32706364989
          15.755659103 -29.798038483 0.39383256435 -1.3868508339 -17.34428978 -0.32028588653
          -1.9639347792 -21.908653259 -0.36038348079 0.68475919962 -2.7896401882 0.083108156919
          0.017175199464 -12.194935799 0.0079142618924 4.6349635124 -25.229883194 0.61549067497
          -2.0766806602 -19.374574661 1.0176722043e-07 -1.7103279829 -14.904476166 0.80917328596
          -0.7978643775 -21.73859024 0.66160178185 8.754907608 -29.132972717 4.7498431854e-07
          12.185956955 -29.43185997 0.35885030031 -1.382068038 -17.387979507 -1.0537187478e-07
          1.4474562407 -4.9355273247 -0.28578460217 2.7930164337 -7.4784960747 -7.8513812696e-07
          0.017455086112 -14.07943821 0.0031668841839 1.9968591928 -25.126993179 0.30113565922
          -1.9523353577 -21.91852951 2.8510177685e-07 -0.1266323328 -25.091945648 -0.61464899778
          0.017109682783 -15.221765518 -0.0056298440322 -0.094361878932 -25.096582413 -0.30901503563
          0.017168361694 -15.651098251 -0.0028756195679 19.41686058 -30.154024124 0.85963332653
          0 0 0 -2.0859687328 -19.353229523 0.40223628283
          2.0915336609 -11.300679207 1.5206832886 5.5420150757 -28.833854675 -0.60667335987
          1.841643095 -11.42295742 0.75831860304 15.754989624 -29.745494843 0.78831779957
          0.59970074892 -2.8653485775 0.17512060702 5.5504574776 -28.867425919 -0.30262714624
          8.7535409927 -29.118028641 0.32706460357 -1.3868502378 -17.34428978 0.32028567791
          2.8361234665 -7.516998291 -1.0436663628 -1.9639345407 -21.908653259 0.36038407683
          -0.085978530347 -25.104194641 4.3719990117e-07 0.017099248245 -15.70349884 -3.2849914078e-07
          12.184380531 -29.381797791 0.71886318922 1.1328773499 -4.7443356514 -0.14682541788
          1.9817508459 -25.1171875 0.60660451651 1.8414986134 -11.321903229 -6.8005658704e-07
          0.017091851681 -13.585868835 0.0062800757587 5.5531234741 -28.880207062 5.2772611525e-07
          20.847644806 -33.908565521 -0.86192262173 0 0 0
          -2.169713974 -19.251955032 0.79231572151 -0.094361625612 -25.096582413 0.3090158999
          0 0 0 17.065990448 -33.4986763 -0.78847771883
          -1.2003067732 -19.546701431 -0.46614193916 0.017169062048 -15.651098251 0.0028749492485
          1.4542196989 -2.222869873 -0.8044449091 -1.6937382221 -22.141429901 -0.63813996315
          20.84703064 -33.963012695 -0.43059906363 8.7499742508 -29.074134827 0.65534293652
          17.065723419 -33.552711487 -0.3940577805 1.6259989738 -2.2225179672 -0.1881364435
          -1.4641679525 -17.072191238 0.6098934412 -1.1418805122 -19.785203934 -0.24572044611
          3.1616241932 -7.8110260963 -2.1042587757 2.77688241 -28.674852371 -0.57963949442
          1.8416438103 -11.42295742 -0.75831997395 -2.0203185081 -21.900112152 0.71925699711
          1.9440473318 -13.042714119 1.0914363861 5.5504574776 -28.867425919 0.30262818933
          -1.6251941919 -22.251426697 -0.32607680559 1.7832827568 -13.301920891 0.55656856298
          2.7962682247 -28.697195053 -0.28926220536 13.366024971 -33.131420135 -0.71705156565
          20.847503662 -33.980888367 3.7900477423e-07 4.2366538048 -3.6162183285 1.0478707552
          0 0 0 13.367772102 -33.183467865 -0.35807543993
          4.4698457718 -3.1977567673 0.46645984054 17.065832138 -33.5704422 4.6784438723e-07
          -1.3847811222 -25.13917923 -0.62382280827 -1.1366286278 -19.835739136 6.4112725795e-08
          -1.6158651114 -22.278213501 2.6262543429e-07 0.017190102488 -17.259876251 -0.0054499353282
          1.6383806467 -2.2304952145 -2.9683496905e-07 -1.3332961798 -25.171905518 -0.31311100721
          2.8016691208 -28.707832336 5.7120973906e-07 0.017101831734 -17.61730957 -0.0028002508916
          1.777564764 -13.272950172 -5.0030422472e-07 -0.12663178146 -25.091945648 0.61464989185
          13.368367195 -33.200675964 5.4989271803e-07 0.017110908404 -15.221765518 0.0056291660294
          4.4665126801 -3.1396951675 -2.4784688435e-07 9.8000984192 -32.814273834 -0.65003246069
          20.84703064 -33.963012695 0.4305998385 -1.3223412037 -25.186403275 4.454679754e-07
          3.6196172237 -6.5828652382 1.5281018019 2.0915350914 -11.300679207 -1.5206847191
          0.017028044909 -17.684524536 -1.4159908801e-07 5.5420160294 -28.833856583 0.60667443275
          0 0 0 9.8050374985 -32.861843109 -0.32459253073
          3.5883533955 -6.2098045349 0.66144984961 17.065723419 -33.552711487 0.39405873418
          -1.1418799162 -19.785203934 0.24572058022 -1.6251937151 -22.251426697 0.32607734203
          1.6259992123 -2.2225179672 0.18813593686 2.7962684631 -28.697195053 0.28926333785
          1.7832834721 -13.301920891 -0.55656957626 13.367773056 -33.183467865 0.35807654262
          9.8065805435 -32.878009796 6.2459861283e-07 0.58221340179 -28.584417343 -0.56561613083
          1.7458193302 -14.916069984 0.8000562191 3.4869492054 -6.2814397812 -5.6246102531e-07
          4.4698462486 -3.1977565289 -0.46646031737 1.6381775141 -15.208451271 0.41657176614
          -1.3332958221 -25.171905518 0.31311190128 0.61458164454 -28.606210709 -0.28390690684
          0.017102522776 -17.61730957 0.0027999656741 6.4664921761 -32.551521301 -0.59460097551
          20.847644806 -33.908565521 0.86192339659 0 0 0
          3.4662208557 -9.4116029739 1.6439050436 6.4771227837 -32.592159271 -0.29609048367
          17.065992355 -33.4986763 0.7884786725 3.3357496262 -9.1506624222 0.72593533993