<?xml version="1.0"?>
<VTKFile type="UnstructuredGrid" version="0.1" byte_order="LittleEndian" header_type="UInt32" compressor="vtkZLibDataCompressor">
  <UnstructuredGrid>
    <Piece NumberOfPoints="6405" NumberOfCells="4800">
      <PointData>
        <DataArray type="Float32" Name="DISPLACEMENT" NumberOfComponents="3" ComponentName0="X-DISPLACEMENT" ComponentName1="Y-DISPLACEMENT" ComponentName2="Z-DISPLACEMENT" format="ascii" RangeMin="0" RangeMax="260.18858956">
          0 0 0 0 0 0
          2.0285620689 -1.2490780354 -0.93783885241 0 0 0
          1.3064339161 -0.74242156744 -0.72607946396 0 0 0
          1.8531874418 -1.3774434328 -0.37272056937 1.137096405 -0.84805697203 -0.29618662596
          0 0 0 3.6355702877 -2.2906041145 -0.95880013704
          0 0 0 3.5847532749 -2.4411468506 -0.4951299727
          2.6227362156 -1.8830412626 -0.79894423485 0 0 0
          0 0 0 1.8597851992 -1.4210468531 -5.3592401628e-07
          0.94984614849 -0.5080897212 -0.56004369259 1.1324601173 -0.86953216791 -2.5704540008e-07
          2.5679907799 -2.0035920143 -0.40818735957 0.81711149216 -0.60589945316 -0.22646515071
          3.5443472862 -2.4835972786 -1.2293465943e-06 1.9132987261 -1.5357766151 -0.62422436476
          0 0 0 2.5332114697 -2.0434322357 -7.0351751447e-07
          1.8550919294 -1.6497734785 -0.32070079446 0 0 0
          5.091342926 -3.6233491898 -0.89679259062 0 0 0
          0.81185996532 -0.62421286106 5.8946145742e-08 0 0 0
          0 0 0 1.8531874418 -1.3774439096 0.37271949649
          3.8600890636 -3.2333128452 -0.76218795776 5.1072974205 -3.7314777374 -0.45767229795
          0.70629376173 -0.33958679438 -0.38112354279 1.1370961666 -0.84805756807 0.29618608952
          3.8729588985 -3.3358149529 -0.38848286867 0.61492854357 -0.44893535972 -0.15977108479
          1.8235203028 -1.6809594631 -1.2042241337e-07 3.5847527981 -2.4411478043 0.4951274693
          0 0 0 0 0 0
          1.3128496408 -1.3049037457 -0.42982363701 2.8862552643 -2.9244287014 -0.62745952606
          5.0943403244 -3.7710494995 -2.1024613943e-06 2.5679900646 -2.0035932064 0.40818586946
          2.8768730164 -3.0223829746 -0.31869512796 0.81711125374 -0.60590016842 0.22646521032
          3.8639922142 -3.3702731133 -1.3298099475e-06 1.252925992 -1.4194765091 -0.22300475836
          0.60758209229 -0.46383744478 5.2195605349e-07 0 0 0
          6.4379644394 -5.1271877289 -0.802120924 0 0 0
          5.0259480476 -4.774682045 -0.70358943939 1.8550912142 -1.6497747898 0.32070052624
          6.4740476608 -5.2050237656 -0.40640562773 2.0285615921 -1.249078989 0.93783766031
          0 0 0 0 0 0
          1.2292195559 -1.4482131004 5.3963304936e-07 2.8666222095 -3.0522885323 -5.0152726772e-07
          0.29569000006 -0.2791864574 -0.16007323563 5.0579071045 -4.8520870209 -0.35481449962
          1.3064330816 -0.74242275953 0.7260787487 2.0042672157 -2.7158129215 -0.48670297861
          0 0 0 5.1072964668 -3.7314791679 0.45766803622
          0.25253227353 -0.41517701745 -0.08488162607 1.9690502882 -2.8043701649 -0.2484588623
          3.8729577065 -3.3358166218 0.38848015666 0.61492782831 -0.44893613458 0.15977206826
          3.8280851841 -4.4995341301 -0.60656100512 0.46168717742 -1.1757591963 -0.23266494274
          6.4747953415 -5.2327342033 -3.1302333809e-06 3.6355690956 -2.2906060219 0.95879745483
          0 0 0 0 0 0
          3.8405771255 -4.5741257668 -0.30543491244 2.6227345467 -1.8830435276 0.79894262552
          5.0626335144 -4.8793058395 -2.1478933832e-06 0.40087044239 -1.2927252054 -0.13167047501
          0.94984567165 -0.50809121132 0.56004357338 0.25170662999 -0.4465419054 1.1261259942e-06
          1.957737565 -2.8310599327 4.5334385845e-07 2.8768718243 -3.022384882 0.31869408488
          1.252925396 -1.4194780588 0.22300583124 3.8411655426 -4.5997123718 -1.1124128605e-06
          1.9132974148 -1.5357792377 0.62422394753 0.3890375495 -1.3223468065 1.3185174339e-06
          2.7169270515 -4.32543993 -0.5174703002 6.4740462303 -5.2050256729 0.40639927983
          5.0913410187 -3.6233522892 0.89678812027 0 0 0
          7.6698675156 -6.7525892258 -0.72571820021 0 0 0
          0 0 0 0.89559203386 -2.5571980476 -0.38878929615
          2.7107954025 -4.3908987045 -0.26118198037 7.7043166161 -6.8099713326 -0.36512330174
          6.1166992188 -6.4267392159 -0.65149754286 5.057905674 -4.8520889282 0.35481014848
          0.029382590204 -0.38984385133 -0.15755403042 0 0 0
          3.8600866795 -3.2333161831 0.76218509674 0.70629298687 -0.33958852291 0.38112443686
          0.8433496356 -2.6307318211 -0.19054961205 0.25253155828 -0.41517791152 0.084883838892
          -0.062358386815 -0.4576548934 -0.051653530449 1.9690493345 -2.8043720722 0.24845971167
          6.1484408379 -6.4866743088 -0.32615187764 3.840575695 -4.5741281509 0.30543264747
          2.7084054947 -4.4165472984 4.5740890187e-08 7.710501194 -6.8306860924 -4.3209001888e-06
          0.27454507351 -1.5057837963 -0.37319642305 0.40086975694 -1.2927268744 0.13167312741
          0 0 0 4.7318220139 -6.1692228317 -0.57582575083
          1.3128488064 -1.3049068451 0.42982473969 2.8862531185 -2.9244325161 0.62745833397
          0.83371311426 -2.6579461098 1.5373058204e-06 6.1565651894 -6.5077590942 -3.1641029636e-06
          -0.024528563023 -0.5234285593 2.2034314497e-06 0.22275200486 -1.4730644226 -0.13412515819
          4.7524399757 -6.2286200523 -0.2885915935 6.4379615784 -5.1271920204 0.80211436749
          0 0 0 1.61615026 -4.1977424622 -0.46963456273
          5.0259447098 -4.7746863365 0.70358484983 0.26684197783 -1.519826889 3.0777603115e-06
          1.5928310156 -4.2527894974 -0.22121486068 4.7573204041 -6.2495231628 -1.9579190393e-06
          0.295689255 -0.27918851376 0.1600754112 2.7107942104 -4.3909015656 0.26118201017
          3.4541749954 -5.9825015068 -0.50371515751 7.7043147087 -6.8099737167 0.36511456966
          0.47862783074 -2.6554672718 -0.41645139456 2.0042657852 -2.7158169746 0.48670366406
          0 0 0 0.8433483839 -2.6307339668 0.19055262208
          3.464619875 -6.040927887 -0.25301882625 -0.062359739095 -0.45765611529 0.051657628268
          0.54313009977 -2.7248022556 -0.17387235165 6.1484389305 -6.4866771698 0.32614549994
          3.8280820847 -4.4995384216 0.60655856133 0.46168628335 -1.1757625341 0.23266762495
          8.8116531372 -8.4563589096 -0.67402201891 0 0 0
          1.5702613592 -4.2686829567 1.390719035e-06 7.1426606178 -8.1491441727 -0.61079615355
          8.8379955292 -8.5044441223 -0.33775031567 0 0 0
          0.032678727061 -0.66409188509 -0.12149624527 7.167696476 -8.200056076 -0.30463713408
          3.4638648033 -6.0616402626 -6.4760183704e-07 0.0037817521952 -0.70388674736 -0.074060335755
          0.2227498889 -1.4730657339 0.13413107395 0.59535872936 -2.8089852333 3.268880846e-06
          4.7524380684 -6.2286229134 0.2885876298 5.5990481377 -7.9046297073 -0.54287809134
          -0.18452690542 -1.6782021523 -0.30899754167 8.8450632095 -8.521478653 -5.6899048104e-06
          0 0 0 -0.15046611428 -1.6834801435 -0.19127865136
          5.6187782288 -7.9562168121 -0.27034556866 7.1749916077 -8.2173585892 -4.3906911742e-06
          0.031365271658 -0.71296882629 2.248797955e-06 2.7169244289 -4.3254451752 0.51747024059
          2.3046145439 -5.8268823624 -0.42238301039 7.6698637009 -6.7525939941 0.72570925951
          0 0 0 0.84522771835 -4.2007141113 -0.29033273458
          1.5928293467 -4.2527918816 0.2212176621 0.89559012651 -2.5572023392 0.38879206777
          6.1166949272 -6.4267444611 0.65149092674 0.029382102191 -0.38984647393 0.1575576365
          0.86933457851 -4.2963795662 -0.16289030015 2.3036832809 -5.8915300369 -0.21225868165
          3.4646179676 -6.0409312248 0.25301751494 0.54312813282 -2.7248046398 0.17387878895
          5.6233000755 -7.9733695984 -3.0254288959e-06 0.066340133548 -1.6740307808 5.034629794e-06
          4.1795306206 -7.7359080315 -0.47537839413 -0.027434634045 -2.8995485306 -0.32246345282
          0.27454301715 -1.5057878494 0.3732021749 8.8379926682 -8.5044469833 0.33773884177
          4.7318181992 -6.1692285538 0.57582163811 0 0 0
          2.2965052128 -5.9078235626 8.3751092461e-07 0.87140154839 -4.3070864677 3.0589264952e-06
          4.1928400993 -7.7845902443 -0.23502710462 7.167693615 -8.2000589371 0.30462828279
          -0.023833392188 -2.9674782753 -0.13115438819 0.0037820974831 -0.70388817787 0.074064522982
          1.6161473989 -4.1977481842 0.46963733435 4.1936788559 -7.7989578247 -1.5673784901e-06
          5.6187758446 -7.9562196732 0.27033945918 -0.15046451986 -1.6834793091 0.19129012525
          -0.018461983651 -2.9954817295 6.9252218964e-06 9.8966064453 -10.228248596 -0.64385461807
          0 0 0 9.9140739441 -10.274415016 -0.32174783945
          3.4541714191 -5.9825081825 0.503713727 8.1197767258 -9.9306907654 -0.58173781633
          0.47862517834 -2.6554727554 0.41645780206 1.0508334637 -5.704656601 -0.27756634355
          0.0090679060668 -0.83174145222 -0.077126279473 0.86933261156 -4.2963824272 0.16289648414
          2.303681612 -5.8915333748 0.21226038039 0 0 0
          8.1373510361 -9.9790449142 -0.28936585784 1.0456345081 -5.7876772881 -0.1562435776
          -0.011613882147 -0.86327129602 -0.037494372576 2.8858499527 -7.6435937881 -0.40171432495
          0.21164864302 -4.4342851639 -0.31415233016 8.8116474152 -8.456363678 0.67401027679
          0 0 0 7.1426553726 -8.1491498947 0.61078709364
          9.9199914932 -10.290207863 -7.2710868153e-06 0.16163888574 -4.4631619453 -0.13126672804
          2.8833165169 -7.6794862747 -0.20211420953 0.032682940364 -0.66409277916 0.12150058895
          6.4220929146 -9.6973781586 -0.51447111368 -0.0021332295146 -1.8172665834 -0.10975446552
          0 0 0 4.1928377151 -7.7845935822 0.23502393067
          -0.023822020739 -2.9674823284 0.13118012249 8.1430454254 -9.9947052002 -5.8517848629e-06
          1.0610074997 -5.8100304604 2.5526969694e-06 6.4359192848 -9.7432661057 -0.25436499715
          -0.020003627986 -1.8897945881 -0.061766020954 -0.0028852506075 -0.8581905961 2.3973586849e-06
          5.5990428925 -7.9046354294 0.54287177324 -0.18451669812 -1.6782140732 0.30901357532
          2.8822755814 -7.6890964508 3.2275234929e-08 0.2025757283 -4.5059738159 5.2397135732e-06
          2.3046112061 -5.8268895149 0.42238479853 6.4374599457 -9.7550163269 -4.34222693e-06
          -0.047273475677 -1.9045934677 5.2302152653e-06 0.84522432089 -4.2007203102 0.29033914208
          9.9140710831 -10.274417877 0.32173320651 4.8371396065 -9.5676708221 -0.44472360611
          0 0 0 -0.046674907207 -3.0261869431 -0.12131489068
          4.8427801132 -9.6065130234 -0.21655936539 8.137348175 -9.9790477753 0.28935408592
          -0.011613212526 -0.86327177286 0.037499118596 1.0456329584 -5.7876811028 0.1562487483
          -0.054769910872 -3.1120569706 -0.065875552595 4.1795258522 -7.7359147072 0.47537511587
          1.4869384766 -7.5634303093 -0.38723304868 2.8833146095 -7.6794900894 0.20211426914
          -0.027428572997 -2.8995554447 0.32248693705 0.1616487354 -4.4631767273 0.13127732277
          0.48371773958 -6.0457091331 -0.43212133646 1.4512585402 -7.5787773132 -0.17649710178
          4.8362870216 -9.6178541183 -2.7029147986e-06 6.435915947 -9.7432689667 0.25435623527
          -0.020001981407 -1.8897957802 0.061777830124 0.44497549534 -5.9977388382 -0.14424033463
          -0.053500015289 -3.1410458088 8.0524459918e-06 10.95289135 -12.07845974 -0.62905466557
          0 0 0 -0.0049339816906 -0.89724880457 -0.015300815925
          1.4341478348 -7.5829172134 1.8337765368e-06 3.3956942558 -9.5458021164 -0.40832650661
          9.0680418015 -11.783348083 -0.56325793266 9.8965997696 -10.228254318 0.64383971691
          0 0 0 0 0 0
          0.47330000997 -6.0266909599 4.6690861382e-06 -0.055118620396 -4.4647679329 -0.1037466675
          10.963033676 -12.126208305 -0.31367486715 3.3960535526 -9.5678434372 -0.19734740257
          9.0781698227 -11.832539558 -0.28033727407 8.11977005 -9.9306974411 0.5817257762
          -0.014913183637 -0.93017143011 -0.0073865172453 1.0508303642 -5.7046642303 0.27757173777
          0.0090707791969 -0.83174180984 0.077131561935 -0.091926120222 -4.5551228523 -0.091704361141
          4.8427767754 -9.6065168381 0.21655385196 -0.054769650102 -3.1120612621 0.06588960439
          7.2145791054 -11.541721344 -0.49294400215 2.8858458996 -7.6436018944 0.40171435475
          0.21166683733 -4.4343128204 0.31416264176 0 0 0
          -0.045720707625 -1.9366554022 -0.025461385027 10.967230797 -12.14192009 -9.105368008e-06
          -0.018990356475 -0.93865734339 2.0689240046e-06 3.3918888569 -9.5793733597 -1.0361663954e-06
          7.2255568504 -11.587203026 -0.242491588 6.4220862389 -9.6973848343 0.51446211338
          9.0817279816 -11.847993851 -7.5823213592e-06 -0.0021295191254 -1.81726861 0.10976519436
          -0.086220830679 -4.5620250702 9.280543054e-06 -0.05436790362 -1.9885745049 -0.010503095575
          1.4512573481 -7.5787816048 0.17650088668 0.44497388601 -5.9977426529 0.14424996078
          0.74270397425 -7.7448878288 -0.4295489192 7.2292423248 -11.597710609 -5.9477988543e-06
          -0.055500987917 -2.0064682961 4.4374241952e-06 0.78535789251 -7.7633047104 -0.19018095732
          5.4256162643 -11.410837173 -0.41911002994 0 0 0
          -0.097142755985 -3.1593489647 -0.025692913681 10.963029861 -12.126211166 0.31365656853
          -0.014912929386 -0.93017154932 0.0073905852623 3.3960506916 -9.5678482056 0.19734531641
          5.4057335854 -11.437010765 -0.20823502541 4.8371334076 -9.5676774979 0.44471776485
          9.078166008 -11.832542419 0.28032201529 2.1452875137 -9.5515003204 -0.4216273129
          -0.23073911667 -6.3214688301 -0.45234969258 -0.046671904624 -3.0261898041 0.12132877111
          -0.10614334792 -3.2248597145 -0.011232831515 -0.091926597059 -4.5551314354 0.091721609235
          2.1108920574 -9.5537395477 -0.19793322682 -0.20811583102 -6.2724695206 -0.24060499668
          0.81231248379 -7.8010749817 3.9431911318e-06 1.486935854 -7.5634393692 0.38723734021
          7.2255530357 -11.587205887 0.24247959256 0.48371458054 -6.0457167625 0.4321308434
          5.3756804466 -11.433675766 -4.2211149776e-06 -0.05436764285 -1.9885754585 0.010511646979
          -0.11105056852 -3.2470185757 6.3705842877e-06 2.0665278435 -9.5479412079 9.7807003385e-07
          -0.17623795569 -6.2538609505 6.9975667429e-06 -0.1730375886 -4.6134662628 -0.04749218747
          3.8735635281 -11.396291733 -0.37709781528 10.952884674 -12.078465462 0.62903612852
          0 0 0 0.78535616398 -7.7633094788 0.19018901885
          -0.0049317353405 -0.89724844694 0.015305058099 -0.1751909405 -4.6811561584 -0.024115459993
          3.3956887722 -9.5458097458 0.40832439065 9.0680341721 -11.783353806 0.56324243546
          3.8519439697 -11.417451859 -0.1837028712 11.997508049 -14.025512695 -0.62267386913
          0 0 0 -0.055120907724 -4.4647798538 0.10375828296
          12.002225876 -14.074591637 -0.31038969755 -0.040573310107 -0.9302238822 0.023744057864
          10.001783371 -13.730275154 -0.5552226305 5.4057292938 -11.43701458 0.20822648704
          0 0 0 -0.10614334047 -3.2248618603 0.011245288886
          10.006545067 -13.780272484 -0.27668246627 -0.034927051514 -0.95663708448 0.01093028672
          2.1108913422 -9.5537452698 0.19793510437 -0.20811890066 -6.2724728584 0.24061945081
          7.214571476 -11.54172802 0.49293172359 -0.17541231215 -4.7038846016 7.5939797171e-06
          3.8165788651 -11.429502487 -2.4071937332e-06 -0.045718215406 -1.936655283 0.025469571352
          1.0180667639 -9.5601682663 -0.33952501416 -0.084637105465 -1.9923921824 0.030611833557
          8.0160226822 -13.47385788 -0.48356470466 0.035454563797 -8.0635709763 -0.44964259863
          12.004377365 -14.090582848 -1.1218942745e-05 0 0 0
          1.0341790915 -9.5916404724 -0.1913190335 10.008881569 -13.796037674 -9.6025187304e-06
          -0.034829761833 -0.96461671591 1.5299327742e-06 8.0194120407 -13.523308754 -0.24034906924
          -0.08109549433 -2.0313727856 0.01713234745 0.05316747725 -8.05164814 -0.20052798092
          0.74270004034 -7.7448964119 0.42955693603 1.0550738573 -9.5991220474 3.3496714877e-06
          -0.18657456338 -6.2325024605 -0.024435492232 -0.17519126832 -4.6811594963 0.024129841477
          2.6213643551 -11.406462669 -0.37469065189 8.0211744308 -13.538434029 -7.8769962784e-06
          5.4256081581 -11.410844803 0.41910120845 3.8519403934 -11.417455673 0.18369799852
          0.10400827974 -8.0629205704 6.6415345827e-06 -0.080940686166 -2.0453586578 3.2896546145e-06
          -0.09714191407 -3.1593511105 0.025703825057 12.002222061 -14.074595451 0.3103671968
          5.9906544685 -13.280812263 -0.41424131393 -0.19523121417 -6.3297314644 -0.037381403148
          -0.1350518316 -3.2261445522 0.035916302353 2.6199777126 -11.418757439 -0.1913895607
          2.1452848911 -9.5515108109 0.42162883282 -0.23074419796 -6.3214769363 0.45236384869
          0 0 0 -0.13150373101 -3.2729201317 0.020456220955
          10.006541252 -13.780275345 0.27666318417 -0.034926854074 -0.95663702488 -0.01092731487
          5.9879765511 -13.315128326 -0.20634154975 -0.20802697539 -6.3320407867 7.4834210864e-06
          2.6127238274 -11.4313097 -2.7796639301e-07 1.0341767073 -9.5916461945 0.1913254261
          5.9828648567 -13.317670822 -6.1171131165e-06 -0.13126918674 -3.2902679443 4.9174409469e-06
          8.0194072723 -13.523311615 0.2403332144 -0.081095121801 -2.031373024 -0.017125831917
          0.053164452314 -8.0516529083 0.20054033399 -0.17303751409 -4.6134705544 0.047504831105
          3.8735568523 -11.396299362 0.37709289789 4.2686347961 -13.26089859 -0.35772931576
          11.997499466 -14.025519371 0.62265110016 0 0 0
          -0.1760867238 -4.6469597816 0.049613852054 -0.040571536869 -0.93022322655 -0.02374086529
          10.001774788 -13.730280876 0.55520308018 -0.1952316761 -6.3297343254 0.037395883352
          2.61997509 -11.418761253 0.19138887525 4.2102851868 -13.241154671 -0.18662822247
          0.33003994823 -9.8557920456 -0.44640219212 -0.17426913977 -4.7025618553 0.026328178123
          -0.13150343299 -3.2729210854 -0.02044666931 5.9879713058 -13.315132141 0.2063292712
          0.36525449157 -9.851351738 -0.18074670434 1.3639253378 -11.373995781 -0.38968253136
          -0.25743588805 -7.9325151443 0.041248176247 13.034683228 -16.081102371 -0.61950486898
          0 0 0 10.931032181 -15.786607742 -0.55372524261
          1.0180621147 -9.5601787567 0.3395305872 -0.084635064006 -1.9923915863 -0.030605604872
          8.0160140991 -13.473864555 0.4835485816 -0.30620992184 -8.0644655228 -0.038499981165
          1.362321496 -11.370328903 -0.18356786668 0.035448953509 -8.0635795593 0.44965514541
          13.036484718 -16.129663467 -0.30913883448 0 0 0
          -0.17648890615 -4.7217297554 5.9828821577e-06 4.1213736534 -13.199447632 -4.0853333303e-06
          -0.069685958326 -0.92773801088 0.056624568999 10.932181358 -15.83574295 -0.27637338638
          -0.052639946342 -0.9505880475 0.023776205257 0.42688500881 -9.9170694351 4.6918312364e-06
          8.8257761002 -15.524355888 -0.48709657788 -0.32064670324 -8.0448513031 6.7341388785e-06
          1.3648095131 -11.368005753 1.5242641211e-06 13.037174225 -16.145568848 -1.3611536815e-05
          0 0 0 -0.11551209539 -1.9812345505 0.075812622905
          8.8253173828 -15.573945045 -0.24326355755 10.932993889 -15.851913452 -1.1906139662e-05
          -0.18657539785 -6.232506752 0.024448459968 2.621358633 -11.406470299 0.3746894002
          -0.05158707127 -0.95734739304 1.0109829418e-06 -0.10269635171 -2.014531374 0.039289057255
          5.990644455 -13.280818939 0.41422891617 -0.13505017757 -3.2261447906 -0.035907376558
          -0.21894048154 -6.2408189774 0.069303691387 3.0482640266 -13.294994354 -0.3886257112
          -0.17426894605 -4.7025632858 -0.026316512376 4.2102818489 -13.241158485 0.18662001193
          -0.22327965498 -6.3051877022 0.040487550199 3.042981863 -13.275366783 -0.18971654773
          0.36525201797 -9.8513565063 0.18075639009 8.8263578415 -15.590445518 -1.0105029105e-05
          -0.09834279865 -2.0260636806 2.2592055302e-06 6.6844320297 -15.283467293 -0.42014533281
          -0.30621123314 -8.0644683838 0.038513634354 1.3623185158 -11.370332718 0.18357098103
          13.03647995 -16.129665375 0.30911153555 0 0 0
          -0.14429816604 -3.1991326809 0.089184582233 6.6906914711 -15.332764626 -0.2105781883
          10.93217659 -15.835745811 0.27634948492 -0.13640494645 -3.2385582924 0.046441093087
          -0.22698619962 -6.3306274414 6.4216628743e-06 3.0349431038 -13.254898071 -1.9846363557e-06
          -0.052639674395 -0.9505879283 -0.023774204776 8.8253126144 -15.57394886 0.24324327707
          6.699534893 -15.35094738 -8.1981315816e-06 -0.13410919905 -3.2526512146 3.4528864035e-06
          4.2686276436 -13.260907173 0.35772094131 0.60543304682 -11.563079834 -0.39793348312
          -0.10269580781 -2.014531374 -0.039284538478 -0.17608578503 -4.6469607353 -0.049603205174
          -0.42292010784 -10.026144981 -0.20558692515 0.63886123896 -11.571152687 -0.18337984383
          0.33003434539 -9.8558015823 0.44641187787 -0.6502251029 -9.9787454605 -0.0057863751426
          -0.22327972949 -6.3051896095 -0.04047505185 3.042979002 -13.275370598 0.18971264362
          1.3639191389 -11.374004364 0.38968557119 -0.25743800402 -7.9325194359 -0.041236132383
          -0.16211380064 -4.6041426659 0.099664859474 4.6021084785 -15.090464592 -0.35894745588
          13.034673691 -16.081110001 0.61947739124 0 0 0
          10.931022644 -15.786614418 0.55370116234 -0.15796360373 -4.645052433 0.053527254611
          0.63821846247 -11.567316055 2.9880213788e-06 -0.26284077764 -8.0045013428 0.067719712853
          1.961545825 -13.312835693 -0.39105978608 4.5834860802 -15.115791321 -0.20085754991
          -0.069684498012 -0.92773729563 -0.056622296572 -0.74109560251 -10.109378815 5.5384493862e-06
          6.6906857491 -15.33276844 0.21056170762 -0.1364043206 -3.2385585308 -0.046434260905
          1.938331604 -13.300562859 -0.18179833889 -0.2796600759 -8.0790920258 0.048455812037
          8.8257665634 -15.524363518 0.48707607388 -0.15854789317 -4.6614465714 4.3833201744e-06
          4.546005249 -15.127166748 -5.9259223235e-06 -0.11551011354 -1.9812335968 -0.075808115304
          1.9003744125 -13.276866913 -1.5604598502e-07 14.064524651 -18.244760513 -0.61676508188
          0 0 0 -0.30487346649 -8.1187582016 6.3624684117e-06
          14.065199852 -18.291553497 -0.30806490779 0 0 0
          0.63885855675 -11.571156502 0.18338617682 11.857234001 -17.95230484 -0.55403983593
          -0.21894033253 -6.2408204079 -0.069292232394 3.0482580662 -13.295002937 0.38862171769
          -0.097107097507 -0.89115518332 0.087623551488 -0.65022540092 -9.9787502289 0.0057984017767
          11.857009888 -17.999061584 -0.27700012922 -0.069074064493 -0.91339612007 0.036479651928
          6.6844210625 -15.283473969 0.4201285243 14.06505394 -18.307022095 -1.6264095393e-05
          -0.15796305239 -4.6450529099 -0.05351863429 9.6506605148 -17.686275482 -0.49269253016
          -0.14165848494 -1.9017670155 0.12123194337 4.5834798813 -15.115794182 0.2008458674
          0 0 0 3.5309603214 -15.122883797 -0.36927679181
          -0.16684517264 -6.1921544075 0.11030443758 -0.14429625869 -3.1991319656 -0.089178003371
          -0.12097728252 -1.9350930452 0.061285033822 9.6487293243 -17.734315872 -0.24596452713
          11.856876373 -18.014648438 -1.447003433e-05 1.9383299351 -13.300567627 0.18179816008
          -0.16716897488 -6.231464386 0.059925351292 3.5410730839 -15.140219688 -0.1581184715
          -0.27966043353 -8.0790939331 -0.048443410546 -0.066886723042 -0.91977918148 5.6775473922e-07
          -0.071251600981 -11.849386215 -0.37787184119 9.6486139297 -17.750692368 -1.2576438166e-05
          0.60542750359 -11.563087463 0.397939533 -0.11415308714 -1.9459211826 1.3365852283e-06
          -0.17336978018 -6.2477240562 4.976521268e-06 -0.41592800617 -11.584276199 -0.14002200961
          3.5385735035 -15.1633358 -3.4190898077e-06 -0.42292371392 -10.026155472 0.20560075343
          14.065195084 -18.291557312 0.30803230405 7.4254221916 -17.439237595 -0.42747849226
          -0.22778855264 -9.8375635147 0.066081173718 0 0 0
          -0.14926613867 -3.0830748081 0.13884192705 0.87080651522 -13.294095993 -0.32561415434
          -0.1385948509 -3.1221072674 0.070629797876 7.4278326035 -17.492279053 -0.21418912709
          11.857005119 -17.999065399 0.27697113156 -0.25185680389 -9.9053506851 0.010747160763
          0.86643797159 -13.326558113 -0.15258860588 -0.069073736668 -0.91339594126 -0.036478482187
          -0.16211229563 -4.604142189 -0.099656641483 4.6020979881 -15.090472221 0.35893490911
          -0.76322096586 -11.400518417 5.2886421145e-06 -0.26284176111 -8.0045032501 -0.067708075047
          1.9615408182 -13.312843323 0.39105975628 7.433242321 -17.512525558 -1.0613085578e-05
          9.6487236023 -17.734319687 0.24593931437 -0.27827051282 -9.9279241562 6.0638872128e-06
          -0.12097662687 -1.9350930452 -0.061282284558 -0.1339404285 -3.1353406906 2.1269811441e-06
          -0.16716860235 -6.2314653397 -0.05991556868 3.5410706997 -15.140223503 0.15811163187
          0.855027318 -13.345561981 1.5127909592e-06 2.4068522453 -15.136417389 -0.34681928158
          -0.15224209428 -7.9146881104 0.1143059358 2.3834223747 -15.117337227 -0.16248814762
          -0.15668259561 -7.9555692673 0.06498670578 14.06451416 -18.244766235 0.61673229933
          0 0 0 -0.41592615843 -11.584281921 0.14003248513
          -0.13372898102 -4.470703125 0.14488483965 5.1662025452 -17.187017441 -0.34900736809
          -0.13090184331 -4.5090494156 0.073616400361 11.857224464 -17.952312469 0.55401068926
          -0.097105905414 -0.89115452766 -0.087622068822 5.1832137108 -17.245059967 -0.1808026731
          7.4278268814 -17.492282867 0.21416780353 -0.25185734034 -9.9053535461 -0.010735240765
          -0.13859401643 -3.1221072674 -0.070625521243 0.86643505096 -13.326561928 0.15259164572
          2.3562209606 -15.093571663 -1.3355003148e-06 -0.15441718698 -7.975833416 5.2711357057e-06
          9.6506490707 -17.686283112 0.49266710877 -0.1416566968 -1.9017660618 -0.12122900039
          3.5309545994 -15.122891426 0.3692702949 -0.12921927869 -4.5240635872 2.8079107324e-06
          -0.16684427857 -6.1921544075 -0.11029517651 5.1990923882 -17.27743721 -8.5293986558e-06
          15.086762428 -20.509496689 -0.61384755373 0 0 0
          -0.071256414056 -11.849392891 0.37788146734 2.3834204674 -15.117341042 0.1624854207
          0 0 0 12.781499863 -20.218845367 -0.5543385148
          -0.26564958692 -11.582537651 0.015404734761 -0.15668237209 -7.9555697441 -0.064976371825
          -0.12322475761 -0.82439368963 0.1190809235 0.20093670487 -13.560958862 -0.38545918465
          15.087086678 -20.554239273 -0.30694365501 7.4254107475 -17.439245224 0.42745709419
          12.781350136 -20.263425827 -0.27705928683 -0.082803465426 -0.8458892107 0.050471860915
          -0.22778987885 -9.8375673294 -0.066070862114 -0.33375769854 -11.631053925 -0.077272571623
          -0.14926417172 -3.0830738544 -0.13883750141 4.0822782516 -17.057453156 -0.32432451844
          -0.13090093434 -4.5090494156 -0.073610752821 0.8708012104 -13.294102669 0.32561764121
          -0.10631672293 -6.0414838791 0.14114378393 5.1832065582 -17.245061874 0.18078565598
          0.21846196055 -13.584166527 -0.11052335054 -0.11062651128 -6.0747404099 0.079088941216
          3.9823274612 -16.965660095 -0.15126539767 10.482834816 -19.956886292 -0.49565082788
          15.086697578 -20.569137573 -1.9156539565e-05 -0.16595210135 -1.7536569834 0.17025840282
          0 0 0 10.479261398 -20.000860214 -0.24712438881
          -0.13517029583 -1.7908015251 0.087361477315 12.781133652 -20.278240204 -1.7266347641e-05
          1.3406765461 -15.179838181 -0.36438471079 -0.30456057191 -11.539646149 5.067663551e-06
          0.22091187537 -13.640135765 1.692738465e-06 -0.12454670668 -9.7100963593 0.10296930373
          -0.078953355551 -0.85136711597 2.3990048703e-07 1.2305791378 -15.118307114 -0.15090055764
          3.7903394699 -16.820568085 -4.2538576963e-06 -0.13467298448 -9.7622470856 0.051538411528
          -0.11955687404 -6.0888948441 3.403616347e-06 2.4068484306 -15.136425018 0.34681683779
          10.47680378 -20.014764786 -1.5261430235e-05 -0.15224172175 -7.9146881104 -0.1142962873
          -0.12521092594 -1.8024260998 5.9764187199e-07 8.1697778702 -19.716632843 -0.4357483685
          15.087080956 -20.55424118 0.30690529943 1.0854403973 -15.018767357 4.7330379971e-07
          -0.15610082448 -2.8772034645 0.19654409587 -0.13372699916 -4.4707026482 -0.14487913251
          -0.1383241564 -9.7846107483 5.1836882449e-06 5.1661896706 -17.18702507 0.34899032116
          0 0 0 8.1674556732 -19.763061523 -0.21360166371
          -0.14415666461 -2.9224362373 0.099617436528 12.781344414 -20.263429642 0.27702468634
          -0.3337585032 -11.631056786 0.077282190323 0.21846055984 -13.584169388 0.11052867025
          -0.08280313015 -0.84588909149 -0.050471305847 3.9823260307 -16.96566391 0.1512567699
          -0.1106255427 -6.0747408867 -0.079082138836 10.479255676 -20.000864029 0.24709378183
          8.1674537659 -19.777450562 -1.3144004697e-05 2.8740770817 -16.974382401 -0.36943373084
          -0.049973968416 -7.7600898743 0.16352123022 -0.14004164934 -2.9351294041 9.49258947e-07
          -0.13516961038 -1.7908017635 -0.087360136211 -0.061391424388 -7.7852401733 0.078116066754
          1.2305779457 -15.118311882 0.15090151131 2.8309762478 -16.940923691 -0.16361188889
          -0.13467259705 -9.7622480392 -0.051528319716 5.8297839165 -19.470230103 -0.35894840956