<?xml version="1.0"?>
<VTKFile type="UnstructuredGrid" version="0.1" byte_order="LittleEndian" header_type="UInt32" compressor="vtkZLibDataCompressor">
  <UnstructuredGrid>
    <Piece NumberOfPoints="6405" NumberOfCells="4800">
      <PointData>
        <DataArray type="Float32" Name="DISPLACEMENT" NumberOfComponents="3" ComponentName0="X-DISPLACEMENT" ComponentName1="Y-DISPLACEMENT" ComponentName2="Z-DISPLACEMENT" format="ascii" RangeMin="0" RangeMax="262.03684445">
          0 0 0 0 0 0
          2.0399112701 -1.2549203634 -0.94335567951 0 0 0
          1.3137204647 -0.74549365044 -0.73025327921 0 0 0
          1.8635687828 -1.3841967583 -0.37495809793 1.1434922218 -0.85181474686 -0.29781785607
          0 0 0 3.6568083763 -2.3013005257 -0.96479225159
          0 0 0 3.6057906151 -2.4532260895 -0.49815452099
          2.6376197338 -1.8911145926 -0.80327880383 0 0 0
          0 0 0 1.8702799082 -1.4281158447 -4.3605504629e-07
          0.95590764284 -0.51058298349 -0.5630133152 1.1388589144 -0.8733895421 -2.2268413602e-07
          2.5828011036 -2.0127837658 -0.41034084558 0.82280606031 -0.60839825869 -0.22780562937
          3.5652506351 -2.4960563183 -1.0534082548e-06 1.9226266146 -1.5421948433 -0.62703156471
          0 0 0 2.547850132 -2.0529403687 -6.454096706e-07
          1.8646585941 -1.6572211981 -0.322057724 0 0 0
          5.1226577759 -3.6423270702 -0.90248650312 0 0 0
          0.81766492128 -0.62684333324 3.2257382543e-08 0 0 0
          0 0 0 1.8635686636 -1.3841971159 0.37495723367
          3.8823187351 -3.2492594719 -0.76580375433 5.1387910843 -3.7518360615 -0.46047478914
          0.70727479458 -0.33994305134 -0.38715264201 1.1434919834 -0.85181522369 0.29781737924
          3.8953659534 -3.3531696796 -0.39028954506 0.61484205723 -0.44899961352 -0.16244605184
          1.8327316046 -1.6887588501 -1.7609703207e-07 3.6057903767 -2.4532268047 0.49815237522
          0 0 0 0 0 0
          1.3269490004 -1.3103789091 -0.43187883496 2.902115345 -2.9362108707 -0.62839263678
          5.1257662773 -3.791810751 -1.8554775352e-06 2.5828003883 -2.012784481 0.41033950448
          2.8926784992 -3.0357158184 -0.31897452474 0.8228058219 -0.60839879513 0.22780564427
          3.8863317966 -3.3879733086 -1.2516535435e-06 1.2680089474 -1.4263775349 -0.22317296267
          0.60641783476 -0.46425417066 4.2861091742e-07 0 0 0
          6.4784946442 -5.1585569382 -0.80692631006 0 0 0
          5.0552697182 -4.8037014008 -0.70690751076 1.8646578789 -1.657222271 0.32205733657
          6.5147657394 -5.2374010086 -0.40877476335 2.0399105549 -1.2549210787 0.94335466623
          0 0 0 0 0 0
          1.2426358461 -1.4553568363 3.7777971329e-07 2.8820459843 -3.0655128956 -5.939126595e-07
          0.32617878914 -0.28964832425 -0.166458413 5.0872097015 -4.8821406364 -0.35642570257
          1.3137196302 -0.74549454451 0.73025262356 2.0180778503 -2.7226073742 -0.48154112697
          0 0 0 5.1387901306 -3.7518372536 0.46047100425
          0.28768110275 -0.42635399103 -0.087574534118 1.9805938005 -2.8132946491 -0.24584813416
          3.8953649998 -3.3531711102 0.39028701186 0.61484146118 -0.44900026917 0.1624468267
          3.8493182659 -4.5270152092 -0.60789239407 0.4843839705 -1.1816306114 -0.2256962657
          6.5154285431 -5.2654132843 -2.8146589557e-06 3.6568069458 -2.3013019562 0.9647898674
          0 0 0 0 0 0
          3.8610436916 -4.602408886 -0.30572932959 2.6376180649 -1.8911163807 0.80327731371
          5.0918822289 -4.9095993042 -2.0413820039e-06 0.42515751719 -1.3024185896 -0.12912707031
          0.9559071064 -0.51058417559 0.56301313639 0.28355866671 -0.45768693089 1.0009606513e-06
          1.9668492079 -2.838889122 1.6211184573e-07 2.8926773071 -3.0357172489 0.31897327304
          1.2680082321 -1.426378727 0.22317369282 3.8615512848 -4.6278858185 -1.2187599623e-06
          1.9226253033 -1.5421969891 0.62703102827 0.41137734056 -1.3320841789 1.0193709841e-06
          2.7293412685 -4.3554177284 -0.51651239395 6.5147643089 -5.2374024391 0.4087690711
          5.1226558685 -3.6423294544 0.90248250961 0 0 0
          7.7176136971 -6.7989315987 -0.72969472408 0 0 0
          0 0 0 0.89083528519 -2.5596859455 -0.37356713414
          2.7190089226 -4.4184575081 -0.25991326571 7.7521324158 -6.8567500114 -0.36711397767
          6.1513433456 -6.4719920158 -0.65490865707 5.087208271 -4.8821425438 0.35642156005
          0.0013160764938 -0.34477049112 -0.11863254011 0 0 0
          3.8823163509 -3.2492620945 0.76580101252 0.70727401972 -0.33994454145 0.38715326786
          0.83472466469 -2.6385111809 -0.18370336294 0.28768029809 -0.42635479569 0.087576448917
          -0.089596517384 -0.42930394411 -0.037302859128 1.9805928469 -2.8132963181 0.24584841728
          6.1830143929 -6.5322818756 -0.32780945301 3.8610422611 -4.6024107933 0.30572685599
          2.715113163 -4.4412837029 -2.9518051292e-07 7.7582163811 -6.8776140213 -3.9307979023e-06
          0.28166514635 -1.5160446167 -0.3579159379 0.42515656352 -1.3024199009 0.12912911177
          0 0 0 4.7552814484 -6.2157058716 -0.57894217968
          1.3269478083 -1.3103814125 0.43187949061 2.9021131992 -2.9362137318 0.62839126587
          0.82298547029 -2.6661269665 1.0123309266e-06 6.1911530495 -6.5534610748 -3.0149137729e-06
          -0.061987955123 -0.48369559646 1.6398635125e-06 0.21887886524 -1.4848716259 -0.12320867926
          4.7750067711 -6.274913311 -0.29015341401 6.4784917831 -5.158560276 0.8069204092
          0 0 0 1.6137953997 -4.2357578278 -0.47106570005
          5.0552663803 -4.8037047386 0.70690315962 0.26561802626 -1.5314676762 2.4696560104e-06
          1.5711934566 -4.2840604782 -0.21756327152 4.779651165 -6.2957558632 -2.0533359475e-06
          0.32617777586 -0.28965014219 0.16646018624 2.7190077305 -4.4184594154 0.25991263986
          3.4647934437 -6.0330262184 -0.50816500187 7.7521305084 -6.8567519188 0.36710605025
          0.49185064435 -2.6724481583 -0.42529904842 2.018075943 -2.7226104736 0.48154127598
          0 0 0 0.83472341299 -2.6385128498 0.1837053597
          3.4744133949 -6.0899577141 -0.25533646345 -0.089597806334 -0.4293050766 0.037305876613
          0.54592394829 -2.7364399433 -0.16473960876 6.1830124855 -6.532283783 0.32780337334
          3.8493154049 -4.5270185471 0.60788977146 0.48438253999 -1.1816333532 0.22569826245
          8.8649768829 -8.5177087784 -0.67757838964 0 0 0
          1.5333410501 -4.2941126823 7.9777936435e-07 7.1814136505 -8.2096014023 -0.61434537172
          8.8913078308 -8.5658922195 -0.3395717442 0 0 0
          -0.064225792885 -0.64510029554 -0.051028560847 7.2064223289 -8.2605466843 -0.30639791489
          3.4750471115 -6.1108675003 -9.976668025e-07 -0.10792060196 -0.68456816673 -0.023509193212
          0.21887663007 -1.4848725796 0.12321339548 0.59409284592 -2.8271842003 2.4751848287e-06
          4.7750048637 -6.2749152184 0.29014924169 5.6229553223 -7.9667906761 -0.54683792591
          -0.44943189621 -1.6174918413 -0.21013380587 8.8983516693 -8.5829935074 -5.2089826568e-06
          0 0 0 -0.43954494596 -1.6520369053 -0.18525925279
          5.642891407 -8.01795578 -0.27261394262 7.2137079239 -8.2779130936 -4.1753360165e-06
          -0.12045371532 -0.7002748847 1.2640321984e-05 2.7293386459 -4.3554215431 0.51651161909
          2.3104767799 -5.879573822 -0.43492537737 7.7176098824 -6.7989349365 0.72968655825
          0 0 0 0.88471907377 -4.2722387314 -0.29560977221
          1.5711920261 -4.2840628624 0.21756486595 0.89083319902 -2.5596895218 0.37356901169
          6.1513390541 -6.4719958305 0.65490239859 0.0013154433109 -0.34477254748 0.11863493174
          0.89351463318 -4.3653793335 -0.16587100923 2.2874078751 -5.9367570877 -0.22106046975
          3.4744114876 -6.0899600983 0.25533443689 0.54592192173 -2.7364416122 0.16474445164
          5.6476764679 -8.0352916718 -3.0918481571e-06 -0.45291230083 -1.6305247545 3.4519514884e-05
          4.1905527115 -7.8016047478 -0.4825104773 -0.36691316962 -2.6143836975 -0.24469190836
          0.28166264296 -1.5160478354 0.35792046785 8.8913059235 -8.5658941269 0.33956125379
          4.7552776337 -6.2157101631 0.57893788815 0 0 0
          2.2571935654 -5.9473924637 2.245553361e-07 0.88198679686 -4.3741283417 2.2669403279e-06
          4.2028298378 -7.8509230614 -0.23966501653 7.2064194679 -8.2605485916 0.30638948083
          -0.38751190901 -2.7054784298 -0.14311093092 -0.10794474185 -0.68457019329 0.023530965671
          1.6137926579 -4.2357621193 0.47106721997 4.2021269798 -7.8677000999 -1.932533678e-06
          5.6428890228 -8.0179576874 0.27260768414 -0.439627707 -1.6520144939 0.18529608846
          -0.32638782263 -2.7610068321 -5.1874906148e-08 9.9554548264 -10.30359745 -0.64761734009
          0 0 0 9.9728002548 -10.349937439 -0.3236349225
          3.4647898674 -6.0330309868 0.5081628561 8.1633071899 -10.004423141 -0.58522671461
          0.49184766412 -2.6724524498 0.4253038466 1.0518482924 -5.760008812 -0.29438325763
          -0.047639053315 -0.84204906225 -0.030529050156 0.89351254702 -4.3653817177 0.16587549448
          2.2874062061 -5.9367599487 0.22106090188 0 0 0
          8.1808853149 -10.052987099 -0.29120436311 1.0423314571 -5.8282413483 -0.17875784636
          -0.071492560208 -0.86951202154 -0.015248148702 2.8897426128 -7.7094283104 -0.41454342008
          0.22367286682 -4.509991169 -0.33403876424 8.8649721146 -8.5177125931 0.67756766081
          0 0 0 7.1814084053 -8.2096061707 0.61433678865
          9.978717804 -10.365795135 -6.6662173595e-06 0.17153558135 -4.5283503532 -0.14778108895
          2.8949859142 -7.7512969971 -0.2136965096 -0.064262710512 -0.64510273933 0.051027461886
          6.4472827911 -9.7698221207 -0.51808714867 -0.067065790296 -1.7640345097 -0.086218520999
          0 0 0 4.2028274536 -7.8509254456 0.23966111243
          -0.3876362443 -2.7054200172 0.14313736558 8.1866044998 -10.068802834 -5.5319246712e-06
          1.0545912981 -5.835565567 1.5709412082e-06 6.46170187 -9.8162240982 -0.25629025698
          -0.11053881794 -1.8323246241 -0.041594121605 -0.072849437594 -0.881044209 8.5011442934e-06
          5.6229505539 -7.9667954445 0.54683148861 -0.44956511259 -1.6174716949 0.21014197171
          2.8995313644 -7.7675905228 -6.713552807e-07 0.22156921029 -4.5700731277 3.4841593788e-06
          2.3104732037 -5.8795790672 0.434925735 6.4634928703 -9.8284778595 -4.3393770284e-06
          -0.11127723753 -1.8527346849 3.457672392e-06 0.88471537828 -4.2722434998 0.29561418295
          9.9727973938 -10.3499403 0.32362154126 4.8451690674 -9.6433601379 -0.4475325644
          0 0 0 -0.12550854683 -2.8615512848 -0.17051352561
          4.8529114723 -9.6819200516 -0.2191991508 8.1808815002 -10.052989006 0.29119324684
          -0.07150336355 -0.86951595545 0.015260834247 1.0423293114 -5.8282442093 0.1787609607
          -0.14859013259 -2.9446690083 -0.06864438951 4.19054842 -7.801609993 0.48250645399
          1.4624650478 -7.619363308 -0.39611774683 2.8949837685 -7.7513003349 0.2136951685
          -0.36712631583 -2.6142590046 0.24461187422 0.17156134546 -4.5283784866 0.1477894932
          0.49688714743 -6.1147851944 -0.46275573969 1.4641588926 -7.647746563 -0.18415272236
          4.8473939896 -9.6930046082 -3.0570131457e-06 6.4616990089 -9.8162269592 0.25628149509
          -0.11055588722 -1.83231318 0.041604422033 0.47327128053 -6.0566697121 -0.16140964627
          -0.16863873601 -2.9728102684 -2.3168488497e-06 11.018470764 -12.167943954 -0.63332504034
          0 0 0 -0.028061553836 -0.88935387135 0.010492280126
          1.4861633778 -7.6666555405 7.5338823535e-07 3.3955891132 -9.6299390793 -0.41096898913
          9.1174535751 -11.870555878 -0.56697428226 9.9554491043 -10.303601265 0.64760375023
          0 0 0 0 0 0
          0.51515567303 -6.0809383392 3.3194310163e-06 -0.1515930444 -4.3991355896 -0.13095901906
          11.02839756 -12.216076851 -0.31580862403 3.4042282104 -9.6494483948 -0.19757929444
          9.1274137497 -11.920238495 -0.28222617507 8.1633014679 -10.00442791 0.58521538973
          -0.035995732993 -0.91987943649 0.0048572523519 1.0518443584 -5.760014534 0.29438647628
          -0.04765393585 -0.84205573797 0.030534844846 -0.18801021576 -4.4870257378 -0.10563310981
          4.8529086113 -9.6819229126 0.21919295192 -0.14860735834 -2.9446249008 0.068632014096
          7.2457680702 -11.625919342 -0.49576559663 2.8897383213 -7.7094345093 0.41454204917
          0.2237213254 -4.5100393295 0.33404102921 0 0 0
          -0.081531405449 -1.8785053492 -0.011380449869 11.032582283 -12.231924057 -8.3269860625e-06
          -0.039073385298 -0.92940366268 2.1197881779e-06 3.4059686661 -9.6582269669 -1.7508201609e-06
          7.2570695877 -11.672266006 -0.24414740503 6.4472765923 -9.7698278427 0.51807820797
          9.1309509277 -11.935873032 -7.1049112194e-06 -0.06708753854 -1.7640222311 0.086226187646
          -0.18496195972 -4.5030989647 -5.7280487908e-07 -0.096585690975 -1.9293615818 -0.0037078422029
          1.4641569853 -7.6477499008 0.18415430188 0.4732696116 -6.0566725731 0.16141624749
          0.77586871386 -7.825653553 -0.45343390107 7.2609233856 -11.683367729 -5.8065575104e-06
          -0.10176914185 -1.9480372667 3.5798206e-07 0.82129788399 -7.8448219299 -0.18876859546
          5.4248514175 -11.49139595 -0.42147341371 0 0 0
          -0.15853315592 -3.0580170155 -0.033648379147 11.028393745 -12.216079712 0.31579190493
          -0.035996645689 -0.91988027096 -0.0048533906229 3.4042255878 -9.6494522095 0.19757579267
          5.4101061821 -11.518853188 -0.20941451192 4.8451638222 -9.64336586 0.4475261569
          9.1274108887 -11.920241356 0.28221189976 2.1528408527 -9.6486053467 -0.42530098557
          -0.22131714225 -6.3771400452 -0.45535030961 -0.1255287081 -2.8614869118 0.17053717375
          -0.17710460722 -3.1291651726 -0.017571192235 -0.18803931773 -4.4870100021 0.10563243926
          2.1253492832 -9.6481113434 -0.19475004077 -0.18766780198 -6.3414411545 -0.24810253084
          0.84272098541 -7.8891892433 2.2841741156e-06 1.4624615908 -7.6193704605 0.39611956477
          7.2570662498 -11.672268867 0.24413570762 0.49688377976 -6.1147913933 0.4627622664
          5.3853139877 -11.516349792 -4.4450257519e-06 -0.096586830914 -1.9293535948 0.003708999604
          -0.18069060147 -3.149389267 -4.048307801e-06 2.0851018429 -9.6379947662 -2.7463011065e-07
          -0.1681047529 -6.3121147156 4.2350588956e-06 -0.23890444636 -4.5383720398 -0.064553037286
          3.8699121475 -11.481678963 -0.37803709507 11.018464088 -12.167948723 0.63330811262
          0 0 0 0.82129579782 -7.8448252678 0.18877343833
          -0.028062172234 -0.88935416937 -0.010490341112 -0.24952946603 -4.6121006012 -0.032624870539
          3.3955841064 -9.629945755 0.41096544266 9.1174468994 -11.8705616 0.56695979834
          3.8528470993 -11.504033089 -0.18307390809 12.070767403 -14.130410194 -0.62746113539
          0 0 0 -0.15163877606 -4.3991103172 0.13095991313
          12.07520771 -14.179988861 -0.31280556321 -0.066943891346 -0.90994334221 0.044311646372
          10.058261871 -13.832737923 -0.55941224098 5.4101023674 -11.518856049 0.20940555632
          0 0 0 -0.17711089551 -3.1291499138 0.017569081858
          10.062766075 -13.88329792 -0.27873897552 -0.058359831572 -0.93664765358 0.019243234769
          2.1253476143 -9.6481151581 0.19474957883 -0.18766967952 -6.3414444923 0.24811202288
          7.2457613945 -11.625925064 0.4957536757 -0.25435331464 -4.6363301277 -2.5406670829e-06
          3.8214557171 -11.516702652 -3.0637124837e-06 -0.081532642245 -1.8784918785 0.011383375153
          1.060557127 -9.683175087 -0.33626323938 -0.13677987456 -1.9419536591 0.047141782939
          8.053401947 -13.573852539 -0.48679116368 0.053575936705 -8.142408371 -0.44077092409
          12.07730484 -14.1961689 -1.0213586393e-05 0 0 0
          1.079461813 -9.7141656876 -0.19569674134 10.065063477 -13.89925766 -8.9150289568e-06
          -0.059011120349 -0.94528472424 2.8146546427e-08 8.0566949844 -13.624005318 -0.24209783971
          -0.13602991402 -1.9847544432 0.025751652196 0.064518928528 -8.1482820511 -0.18826949596
          0.77586454153 -7.8256607056 0.45343849063 1.1003984213 -9.7161827087 1.2364644135e-06
          -0.21230101585 -6.2332830429 -0.050162531435 -0.24953633547 -4.6120886803 0.032621748745
          2.6285424232 -11.48990345 -0.37230810523 8.0584201813 -13.639354706 -7.5292705333e-06
          5.4248437881 -11.491401672 0.42146426439 3.8528439999 -11.50403595 0.18306779861
          0.095168024302 -8.1531934738 4.5668643907e-06 -0.1347682327 -1.9996143579 -1.1219495946e-06
          -0.15854276717 -3.0579943657 0.033648390323 12.075203896 -14.179991722 0.31278508902
          6.004327774 -13.374554634 -0.41699823737 -0.23932941258 -6.3381938934 -0.051997080445
          -0.22042362392 -3.1514668465 0.043828547001 2.6298055649 -11.50614357 -0.19224342704
          2.1528367996 -9.6486120224 0.42530053854 -0.22132125497 -6.377146244 0.45536011457
          0 0 0 -0.22132925689 -3.207265377 0.024850351736
          10.06276226 -13.883299828 0.27872106433 -0.058359369636 -0.93664669991 -0.019243270159
          6.0049648285 -13.41109848 -0.20604622364 -0.24864168465 -6.3352775574 -1.3679456856e-07
          2.624232769 -11.521184921 -1.4777997421e-06 1.0794597864 -9.7141695023 0.19569920003
          6.0036253929 -13.414868355 -6.0861825659e-06 -0.22275929153 -3.2265210152 -2.0893835426e-06
          8.0566911697 -13.624008179 0.24208268523 -0.13602970541 -1.9847503901 -0.025753382593
          0.06451728195 -8.1482858658 0.18827673793 -0.23891352117 -4.5383543968 0.064554743469
          3.8699064255 -11.481685638 0.3780311048 4.2704358101 -13.357647896 -0.35648843646
          12.070759773 -14.130415916 0.62744039297 0 0 0
          -0.28844225407 -4.5784664154 0.051418527961 -0.066943220794 -0.90994125605 -0.044311635196
          10.058254242 -13.832742691 0.55939412117 -0.23933595419 -6.3381910324 0.051997624338
          2.6298034191 -11.506147385 0.19224049151 4.2121706009 -13.334431648 -0.18488459289
          0.36145317554 -9.9786319733 -0.43643325567 -0.29305803776 -4.6472253799 0.027501206845
          -0.22132988274 -3.2072587013 -0.024854326621 6.004960537 -13.411101341 0.20603400469
          0.36755988002 -9.9501171112 -0.18538504839 1.360075593 -11.447117805 -0.38171231747
          -0.19723655283 -8.011297226 -0.059117779136 13.116204262 -16.202636719 -0.62475907803
          0 0 0 10.994880676 -15.905777931 -0.55827367306
          1.0605529547 -9.6831817627 0.33626621962 -0.13677982986 -1.9419469833 -0.047142330557
          8.0533943176 -13.573858261 0.48677578568 -0.23475813866 -8.1058034897 -0.10585170239
          1.3694829941 -11.452390671 -0.18299724162 0.053572572768 -8.1424160004 0.44077861309
          13.117779732 -16.25176239 -0.31178182364 0 0 0
          -0.29717439413 -4.6685261726 -2.3435397907e-06 4.1229128838 -13.28858757 -4.4383414206e-06
          -0.10723813623 -0.90857321024 0.079683288932 10.99576664 -15.955461502 -0.27869579196
          -0.085400931537 -0.93387597799 0.033261086792 0.39887475967 -9.9768791199 2.471008429e-06
          8.8709306717 -15.640692711 -0.49108579755 -0.20420226455 -8.132818222 1.3141658428e-06
          1.3869782686 -11.460424423 1.3902425167e-07 13.118437767 -16.267879486 -1.2339203749e-05
          0 0 0 -0.19592162967 -1.9478796721 0.10016530752
          8.870344162 -15.691050529 -0.24511834979 10.996500015 -15.971848488 -1.0974687939e-05
          -0.21230971813 -6.2332773209 0.050164874643 2.6285381317 -11.489911079 0.37230533361
          -0.084255941212 -0.94101786613 -6.1496280068e-07 -0.1818908453 -1.9859930277 0.051961731166
          6.004319191 -13.37456131 0.41698592901 -0.22042448819 -3.151456356 -0.043829444796
          -0.33133345842 -6.2096395493 0.062283702195 3.0511329174 -13.391972542 -0.38787201047
          -0.2930598557 -4.6472196579 -0.027504799888 4.212167263 -13.334435463 0.1848757565
          -0.34440562129 -6.2881221771 0.032567773014 3.0494344234 -13.370344162 -0.18899615109
          0.36755895615 -9.9501209259 0.1853903383 8.8716125488 -15.707606316 -9.5170644272e-06
          -0.17673462629 -1.9986780882 -1.2487764707e-06 6.7135658264 -15.394496918 -0.42159128189
          -0.23475968838 -8.1058082581 0.10585493594 1.3694822788 -11.452394485 0.18299768865
          13.117775917 -16.251766205 0.31175708771 0 0 0
          -0.2796549201 -3.1542508602 0.11219212413 6.7174687386 -15.446135521 -0.21143692732
          10.995761871 -15.955464363 0.27867376804 -0.27172130346 -3.2022659779 0.058822676539
          -0.35224109888 -6.3172755241 -1.2319901543e-06 3.0445182323 -13.347899437 -2.5698816444e-06
          -0.085400559008 -0.93387508392 -0.03326215595 8.8703393936 -15.691053391 0.2450992316
          6.7239508629 -15.46505928 -7.9391538748e-06 -0.26932772994 -3.2182209492 -1.7363139477e-06
          4.2704296112 -13.357655525 0.35647955537 0.6252489686 -11.64663887 -0.41102364659
          -0.18189026415 -1.9859908819 -0.051963962615 -0.28844437003 -4.5784573555 -0.051419626921
          -0.36974692345 -10.235451698 -0.433450073 0.66116130352 -11.656149864 -0.18082676828
          0.3614500463 -9.978638649 0.43643915653 -0.32570174336 -10.215696335 -0.22819781303
          -0.34440606833 -6.2881207466 -0.03256964311 3.0494322777 -13.370347977 0.1889911294
          1.3600734472 -11.447126389 0.38171336055 -0.19723746181 -8.011302948 0.059122167528
          -0.35576543212 -4.5572190285 0.12507288158 4.5927224159 -15.182973862 -0.35428071022
          13.116195679 -16.202642441 0.62473416328 0 0 0
          10.99487114 -15.905783653 0.55825144053 -0.35143125057 -4.6120481491 0.066758409142
          0.66658216715 -11.667947769 1.6319388578e-06 -0.37402328849 -8.0689563751 0.030462661758
          1.9721354246 -13.41642952 -0.39339286089 4.5776715279 -15.214748383 -0.19927756488
          -0.10723783821 -0.90857172012 -0.079683929682 -0.046589277685 -9.8774642944 1.878581088e-06
          6.7174639702 -15.446138382 0.21142098308 -0.27172094584 -3.2022628784 -0.05882557109
          1.950797677 -13.400847435 -0.17934067547 -0.40723839402 -8.1312408447 0.025738563389
          8.8709211349 -15.640699387 0.49106648564 -0.3527341485 -4.6315584183 -1.4884199118e-06
          4.5452828407 -15.234889984 -5.9563731156e-06 -0.19592095912 -1.9478763342 -0.10016667098
          1.915289402 -13.374759674 -8.2586819872e-07 14.154744148 -18.383928299 -0.62233614922
          0 0 0 -0.4062486887 -8.1236305237 -3.9861757273e-07
          14.155241013 -18.431316376 -0.31090635061 0 0 0
          0.66116011143 -11.656154633 0.18083040416 11.928687096 -18.088924408 -0.55896174908
          -0.33133301139 -6.2096362114 -0.062283173203 3.0511288643 -13.391980171 0.38786703348
          -0.14383348823 -0.88150924444 0.1161224544 -0.32570236921 -10.215701103 0.22820542753
          11.928399086 -18.136327744 -0.27950179577 -0.10960200429 -0.90631276369 0.048333678395
          6.7135558128 -15.39450264 0.42157503963 14.155044556 -18.447027206 -1.4709527022e-05
          -0.35143068433 -4.6120452881 -0.066760919988 9.7035121918 -17.820882797 -0.49708324671
          -0.24565561116 -1.8989216089 0.15218289196 4.5776662827 -15.214751244 0.19926586747
          0 0 0 3.5293455124 -15.222975731 -0.36185905337
          -0.41185745597 -6.1669249535 0.13725666702 -0.27965420485 -3.1542463303 -0.11219383776
          -0.22179935873 -1.9348294735 0.078024238348 9.7012758255 -17.869598389 -0.24824810028
          11.928320885 -18.152223587 -1.3287085494e-05 1.9507973194 -13.400850296 0.17933915555
          -0.41938871145 -6.2245087624 0.076924264431 3.5455765724 -15.240762711 -0.15511645377
          -0.40723651648 -8.1312446594 -0.025737809017 -0.10738310218 -0.91254031658 -5.9267676988e-07
          -0.11582169682 -11.88343811 -0.39761427045 9.7010660172 -17.886375427 -1.1761387213e-05
          0.62524586916 -11.6466465 0.41102641821 -0.21322202682 -1.945882082 -9.3859938488e-07
          -0.42643177509 -6.2451143265 -7.2491997116e-07 -0.07244938612 -11.910435677 -0.16672314703
          3.5502665043 -15.266140938 -3.4776951452e-06 -0.36975002289 -10.235458374 0.43345764279
          14.155236244 -18.43132019 0.31087687612 7.4613723755 -17.57286644 -0.43181321025
          -0.3932672441 -10.040327072 0.06041687727 0 0 0
          -0.33294391632 -3.0850331783 0.17326900363 0.91087281704 -13.407696724 -0.32610562444
          -0.3183605969 -3.1281406879 0.089933790267 7.4618549347 -17.626167297 -0.21591484547
          11.928394318 -18.136329651 0.27947515249 -0.49944058061 -10.111743927 -0.047279343009
          0.90358400345 -13.435574532 -0.15279380977 -0.10960169137 -0.90631222725 -0.048334706575
          -0.3557639122 -4.5572152138 -0.12507386506 4.5927138329 -15.182979584 0.35426840186
          -0.029354894534 -11.958140373 6.7295866302e-07 -0.37402001023 -8.0689620972 -0.030460970476
          1.9721329212 -13.416436195 0.39339122176 7.465695858 -17.646060944 -1.0141136954e-05
          9.7012710571 -17.869602203 0.24822449684 -0.56142920256 -10.05247879 1.74073989e-06
          -0.22179888189 -1.9348284006 -0.078025914729 -0.31348741055 -3.1416139603 -8.9443597062e-07
          -0.41938704252 -6.2245078087 -0.076925076544 3.5455753803 -15.240765572 0.15510948002
          0.88644713163 -13.44692421 6.4662987143e-07 2.4244756699 -15.233565331 -0.34409099817
          -0.40980494022 -7.9803786278 0.14300473034 2.3996136189 -15.21408844 -0.16139131784
          -0.46582904458 -8.0423183441 0.079198077321 14.154734612 -18.383934021 0.6223064661
          0 0 0 -0.072450511158 -11.910439491 0.16672827303
          -0.40975055099 -4.466840744 0.1898406595 5.1809191704 -17.311876297 -0.34902065992
          -0.40239787102 -4.5130105019 0.09940546751 11.928677559 -18.08893013 0.55893492699
          -0.14383323491 -0.88150858879 -0.11612309515 5.1947016716 -17.373134613 -0.17970556021
          7.4618496895 -17.626171112 0.21589447558 -0.49944040179 -10.111754417 0.047277074307
          -0.31836006045 -3.1281392574 -0.08993537724 0.90358227491 -13.435577393 0.15279509127
          2.370626688 -15.19140625 -1.5386389123e-06 -0.50219988823 -8.0553302765 3.6345255694e-07
          9.7035017014 -17.820888519 0.49705943465 -0.24565494061 -1.8989201784 -0.15218397975
          3.5293421745 -15.222982407 0.36185246706 -0.40227553248 -4.5273895264 -3.3111206221e-07
          -0.41185373068 -6.1669239998 -0.13725593686 5.2080397606 -17.405416489 -8.3111972344e-06
          15.186136246 -20.66727066 -0.61969667673 0 0 0
          -0.11582384259 -11.883444786 0.39761951566 2.3996126652 -15.214091301 0.1613881588
          0 0 0 12.861096382 -20.373889923 -0.55931574106
          -0.74182647467 -12.198594093 -0.42510953546 -0.46582379937 -8.0423231125 -0.079196996987
          -0.17183542252 -0.8211838007 0.15518288314 0.25973060727 -13.671978951 -0.37552243471
          15.186406136 -20.712715149 -0.30989983678 7.4613623619 -17.572872162 0.43179267645
          12.860854149 -20.419225693 -0.2796382308 -0.12605296075 -0.84507966042 0.064678087831
          -0.39325881004 -10.040341377 -0.06041219458 -0.73143935204 -12.174324989 -0.15805257857
          -0.33294275403 -3.085031271 -0.1732698679 4.0580639839 -17.131565094 -0.31688010693
          -0.40239721537 -4.5130085945 -0.099405869842 0.91086983681 -13.407702446 0.32610732317
          -0.47451981902 -6.0507884026 0.20442672074 5.1946954727 -17.373138428 0.17968893051
          0.25914701819 -13.681266785 -0.1050311625 -0.47873711586 -6.1001739502 0.11015272141
          3.9551923275 -17.029899597 -0.14781390131 10.541413307 -20.109064102 -0.50005787611
          15.186042786 -20.727869034 -1.7330110495e-05 -0.27942845225 -1.7954894304 0.20404598117
          0 0 0 10.538432121 -20.154302597 -0.24953281879
          -0.24709185958 -1.8294608593 0.10510063916 12.860545158 -20.434396744 -1.5850855561e-05
          1.3738613129 -15.267172813 -0.36254736781 -1.0360133648 -12.273295403 -1.9845767383e-05
          0.19680921733 -13.669344902 9.133462413e-07 -0.38474491239 -10.068840027 0.059747084975
          -0.12284173816 -0.8502098918 -4.3224679303e-07 1.2632873058 -15.209650993 -0.14918972552
          3.7762033939 -16.889925003 -3.8948915062e-06 -0.51234161854 -10.083271027 0.039265785366
          -0.48530554771 -6.1153588295 9.5696384506e-07 2.4244735241 -15.23357296 0.34408807755
          10.536437035 -20.169122696 -1.4254403141e-05 -0.40979489684 -7.9803853035 -0.14300096035
          -0.23568420112 -1.8384557962 -5.2449723853e-07 8.211977005 -19.866954803 -0.43938836455
          15.186400414 -20.712718964 0.30986511707 1.1223570108 -15.117619514 1.2917426773e-07
          -0.36676132679 -2.9506278038 0.23337887228 -0.40974870324 -4.4668393135 -0.18984037638
          -0.59643697739 -10.102475166 -1.002304316e-06 5.1809077263 -17.311883926 0.34900394082
          0 0 0 8.2090091705 -19.914632797 -0.21659894288
          -0.34885177016 -2.9886004925 0.12061956525 12.86084938 -20.419229507 0.27960646152
          -0.73143452406 -12.174328804 0.15805852413 0.25914630294 -13.681269646 0.10503478348
          -0.12605267763 -0.845079422 -0.064678825438 3.9551918507 -17.029901505 0.14780595899
          -0.47873577476 -6.1001734734 -0.11015084386 10.538427353 -20.154304504 0.24950423837
          8.208067894 -19.930225372 -1.2547297956e-05 2.9050495625 -17.055561066 -0.37561610341
          -0.5078368783 -7.8087553978 0.20697188377 -0.34256067872 -2.9989759922 -1.5629800032e-07
          -0.24709141254 -1.8294603825 -0.10510156304 -0.54927420616 -7.8723583221 0.11058328301
          1.2632869482 -15.209654808 0.14919000864 2.8519022465 -17.020498276 -0.15865467489
          -0.51233041286 -10.083287239 -0.039262037724 5.8659486771 -19.61989975 -0.36235177517
          15.186125755 -20.667276382 0.61966180801 0 0 0