<?xml version="1.0"?>
<VTKFile type="UnstructuredGrid" version="0.1" byte_order="LittleEndian" header_type="UInt32" compressor="vtkZLibDataCompressor">
  <UnstructuredGrid>
    <Piece NumberOfPoints="6405" NumberOfCells="4800">
      <PointData>
        <DataArray type="Float32" Name="DISPLACEMENT" NumberOfComponents="3" ComponentName0="X-DISPLACEMENT" ComponentName1="Y-DISPLACEMENT" ComponentName2="Z-DISPLACEMENT" format="ascii" RangeMin="0" RangeMax="415.05155892">
          0 0 0 0 0 0
          2.7168180943 -1.5230962038 -1.2619565725 0 0 0
          1.6079717875 -0.83032822609 -0.87039613724 0 0 0
          2.4892163277 -1.7529332638 -0.49907597899 1.3957184553 -1.0292458534 -0.35480317473
          0 0 0 4.9739160538 -3.1220347881 -1.316532135
          0 0 0 4.9018158913 -3.3992364407 -0.66998744011
          3.2408146858 -2.5792434216 -0.9808473587 0 0 0
          0 0 0 2.50440979 -1.8206446171 1.5905449402e-08
          0.87557065487 -0.53055733442 -0.53253448009 1.388664484 -1.0652834177 5.419181992e-09
          3.1627876759 -2.8119893074 -0.49848943949 0.73403853178 -0.71952337027 -0.22170269489
          4.8507566452 -3.4752960205 2.6241762541e-08 1.7814869881 -2.2101392746 -0.63704967499
          0 0 0 3.1189677715 -2.8826134205 7.6596498033e-09
          1.7065384388 -2.4220721722 -0.32745677233 0 0 0
          7.0314717293 -5.3964452744 -1.2437419891 0 0 0
          0.72867000103 -0.75154000521 -3.5664529108e-09 0 0 0
          0 0 0 2.4892163277 -1.7529331446 0.4990760088
          4.7784180641 -4.8790402412 -0.95394539833 7.0439629555 -5.6152229309 -0.62850600481
          0.18062186241 -0.47242856026 -0.19279503822 1.3957184553 -1.0292458534 0.35480320454
          4.7840843201 -5.0847139359 -0.48426309228 0.093246527016 -0.67021894455 -0.09004650265
          1.6757780313 -2.4838721752 -1.0803641537e-08 4.9018158913 -3.3992364407 0.66998749971
          0 0 0 0 0 0
          0.44548282027 -2.0791931152 -0.31708082557 2.7775158882 -4.5288963318 -0.67456895113
          7.0228991508 -5.688246727 3.4447118935e-08 3.1627876759 -2.8119893074 0.49848943949
          2.7496812344 -4.7184767723 -0.34193623066 0.73403853178 -0.71952331066 0.22170267999
          4.7700924873 -5.1489043236 9.1788736611e-09 0.36510944366 -2.2812638283 -0.16402702034
          0.085492528975 -0.71089315414 -1.5984275237e-08 0 0 0
          8.9282751083 -8.1114034653 -1.1162984371 0 0 0
          6.2614946365 -7.6333990097 -0.8957144022 1.7065384388 -2.4220721722 0.32745677233
          8.9684486389 -8.2769432068 -0.56202793121 2.7168180943 -1.5230962038 1.2619565725
          0 0 0 0 0 0
          0.3419739604 -2.343010664 -3.2179990228e-08 2.7350981236 -4.7756781578 -1.6687216942e-08
          -0.52076894045 -0.61461681128 0.14752803743 6.2919564247 -7.7939743996 -0.45051902533
          1.6079717875 -0.83032816648 0.87039613724 0.90304660797 -4.3634252548 -0.41870898008
          0 0 0 7.0439629555 -5.6152229309 0.62850606441
          -0.58456599712 -0.81851106882 0.055097833276 0.83857470751 -4.5318717957 -0.21190521121
          4.7840843201 -5.0847139359 0.48426312208 0.093246527016 -0.67021888494 0.090046472847
          3.8179340363 -7.2905197144 -0.68220549822 -0.77992868423 -2.1722693443 -0.046892106533
          8.9632406235 -8.3314599991 4.1861106581e-08 4.9739160538 -3.1220347881 1.316532135
          0 0 0 0 0 0
          3.8110349178 -7.4391670227 -0.34292584658 3.2408146858 -2.5792431831 0.9808473587
          6.2943406105 -7.8459296227 1.2115380699e-08 -0.89157891273 -2.36191535 -0.019068803638
          0.87557065487 -0.53055727482 0.53253448009 -0.61006772518 -0.86434704065 -3.4036709451e-08
          0.81690263748 -4.5842528343 -4.5169723961e-08 2.7496812344 -4.7184767723 0.34193620086
          0.36510941386 -2.2812638283 0.16402696073 3.8065333366 -7.4868898392 -1.8796512791e-08
          1.7814869881 -2.2101390362 0.63704967499 -0.91559028625 -2.4248611927 -5.8243060153e-08
          1.5191920996 -7.1103801727 -0.49815970659 8.9684486389 -8.2769432068 0.56202799082
          7.0314717293 -5.3964452744 1.2437419891 0 0 0
          10.657870293 -11.155585289 -1.0042293072 0 0 0
          0 0 0 -0.75632435083 -4.4181509018 -0.23221670091
          1.4725654125 -7.2338519096 -0.24945363402 10.699175835 -11.275903702 -0.50288647413
          7.6761107445 -10.711247444 -0.84194254875 6.2919564247 -7.7939743996 0.45051905513
          -1.2307487726 -0.88929873705 0.51533961296 0 0 0
          4.7784180641 -4.8790402412 0.95394539833 0.18062184751 -0.47242850065 0.19279499352
          -0.86540669203 -4.5472683907 -0.11132121831 -0.58456599712 -0.81851106882 -0.055097900331
          -1.2840615511 -1.1175305843 0.20564334095 0.83857470751 -4.5318713188 0.2119051218
          7.7085757256 -10.830334663 -0.42096608877 3.8110349178 -7.4391670227 0.34292581677
          1.4575879574 -7.2756223679 -5.2683510887e-08 10.700876236 -11.315898895 5.065945885e-08
          -2.0008695126 -2.4166924953 0.19380754232 -0.89157891273 -2.36191535 0.019068686292
          0 0 0 4.8854179382 -10.376912117 -0.68549478054
          0.44548279047 -2.0791928768 0.31708076596 2.7775156498 -4.5288958549 0.67456889153
          -0.89345180988 -4.5933527946 -7.8419276406e-08 7.71570158 -10.869050026 1.8381935973e-08
          -1.3281404972 -1.1762669086 -7.135236757e-08 -2.1702780724 -2.5879423618 0.10500709713
          4.8865242004 -10.485655785 -0.34265083075 8.9282751083 -8.1114034653 1.1162985563
          0 0 0 -0.50279891491 -7.1387438774 -0.38737982512
          6.2614946365 -7.6333990097 0.8957144618 -2.195199728 -2.6431763172 -9.4987179011e-08
          -0.59239006042 -7.212331295 -0.18913960457 4.8874192238 -10.521593094 -1.5665071018e-08
          -0.52076900005 -0.61461675167 -0.14752811193 1.4725654125 -7.2338519096 0.24945352972
          2.2466154099 -10.179930687 -0.5590236187 10.699175835 -11.275903702 0.50288653374
          -2.2987143993 -4.6720123291 -0.13972653449 0.90304660797 -4.3634252548 0.41870889068
          0 0 0 -0.86540669203 -4.5472683907 0.11132106185
          2.2155814171 -10.263171196 -0.27871206403 -1.2840616703 -1.1175305843 -0.20564347506
          -2.4702863693 -4.7408742905 -0.059217203408 7.7085757256 -10.830334663 0.42096614838
          3.8179340363 -7.2905197144 0.68220543861 -0.77992874384 -2.1722693443 0.046891983598
          12.237149239 -14.431020737 -0.91506427526 0 0 0
          -0.61694335938 -7.2438693047 -9.1987601536e-08 9.021941185 -14.016530991 -0.79809880257
          12.272111893 -14.517481804 -0.45730090141 0 0 0
          -1.9346876144 -1.3503665924 0.89865165949 9.05007267 -14.102359772 -0.39811527729
          2.2075417042 -10.293431282 -5.3081908646e-08 -1.9234118462 -1.5797153711 0.35530999303
          -2.1702780724 -2.5879421234 -0.10500728339 -2.505423069 -4.7742137909 -1.1993672899e-07
          4.8865242004 -10.485655785 0.34265080094 5.9635014534 -13.690494537 -0.68613189459
          -3.2611672878 -2.7473912239 0.41533911228 12.275682449 -14.546142578 6.2794335065e-08
          0 0 0 -3.4963409901 -2.9105730057 0.21342170238
          5.9686493874 -13.766941071 -0.34217336774 9.0575714111 -14.130275726 2.9599737772e-08
          -1.9549322128 -1.623934269 -1.1653957444e-07 1.5191920996 -7.1103801727 0.49815958738
          -0.069420084357 -10.183299065 -0.50839841366 10.657870293 -11.155585289 1.0042294264
          0 0 0 -2.2770540714 -7.4084806442 -0.39881718159
          -0.59239012003 -7.212331295 0.18913942575 -0.75632441044 -4.4181509018 0.232216537
          7.6761107445 -10.711247444 0.84194260836 -1.2307488918 -0.88929867744 -0.51533973217
          -2.413043499 -7.4037184715 -0.18948595226 -0.13373742998 -10.213378906 -0.24923251569
          2.2155814171 -10.263170242 0.27871197462 -2.4702866077 -4.7408742905 0.05921696499
          5.9717125893 -13.792552948 -5.6947113691e-09 -3.501860857 -2.9647898674 -1.1644910813e-07
          3.0675551891 -13.484599113 -0.60392707586 -3.7766387463 -5.0685124397 -0.18290008605
          -2.000869751 -2.4166922569 -0.19380772114 12.272111893 -14.517481804 0.45730105042
          4.8854179382 -10.376912117 0.68549472094 0 0 0
          -0.15095981956 -10.232507706 -9.68636229e-08 -2.4462549686 -7.4189825058 -1.4133151183e-07
          3.0502560139 -13.536575317 -0.29974833131 9.05007267 -14.102359772 0.39811533689
          -4.0155057907 -5.0524897575 -0.078222513199 -1.9234116077 -1.5797153711 -0.35531020164
          -0.50279897451 -7.1387438774 0.3873796463 3.0472316742 -13.556848526 -4.4723517334e-08
          5.9686493874 -13.766941071 0.34217336774 -3.4963409901 -2.9105730057 -0.2134219259
          -4.0466814041 -5.069934845 -1.659338551e-07 13.693120003 -17.867500305 -0.84738588333
          0 0 0 13.720872879 -17.929742813 -0.42319333553
          2.2466154099 -10.179930687 0.55902355909 10.306728363 -17.476547241 -0.76284259558
          -2.2987146378 -4.6720123291 0.13972629607 -2.0440678596 -10.450760841 -0.57801616192
          -3.5540392399 -2.0280439854 1.5142611265 -2.413043499 -7.4037184715 0.18948566914
          -0.13373744488 -10.213378906 0.24923232198 0 0 0
          10.329805374 -17.538316727 -0.38032576442 -2.1354708672 -10.400033951 -0.28073352575
          -1.4472535849 -1.7929519415 0.71505999565 0.51508593559 -13.466715813 -0.5896473527
          -3.757638216 -7.9190797806 -0.57020407915 12.237149239 -14.431020737 0.91506439447
          0 0 0 9.021941185 -14.016530991 0.79809886217
          13.724750519 -17.950313568 7.9427749711e-08 -3.9286222458 -7.8205885887 -0.27814936638
          0.47707006335 -13.467913628 -0.28994166851 -1.934687376 -1.3503662348 -0.89865201712
          7.044924736 -17.155513763 -0.68242496252 -5.2392110825 -3.0842342377 0.42971390486
          0 0 0 3.0502560139 -13.536575317 0.2997482419
          -4.0155057907 -5.0524897575 0.078222185373 10.336415291 -17.558258057 4.7027519656e-08
          -2.1589477062 -10.401885033 -1.5218040517e-07 7.0527739525 -17.209062576 -0.34006181359
          -5.5830745697 -3.1622993946 0.24106097221 -0.69972389936 -1.6428906918 3.5321380665e-07
          5.9635014534 -13.690494537 0.68613183498 -3.2611672878 -2.7473912239 -0.41533941031
          0.46758460999 -13.477135658 -9.0742403813e-08 -3.9558970928 -7.8213376999 -2.0421036595e-07
          -0.069420106709 -10.183299065 0.50839823484 7.0566391945 -17.226882935 1.2337166844e-08
          -5.5560331345 -3.2253434658 1.8777406297e-07 -2.2770543098 -7.4084806442 0.39881691337
          13.720872879 -17.929742813 0.42319351435 3.9464044571 -16.937294006 -0.6272764802
          0 0 0 -5.5915813446 -5.4138250351 -0.38848215342
          3.940251112 -16.968740463 -0.31153449416 10.329806328 -17.538316727 0.38032585382
          -1.4472483397 -1.792951107 -0.71505755186 -2.1354708672 -10.400033951 0.28073322773
          -5.8612451553 -5.2948980331 -0.19733031094 3.0675551891 -13.484599113 0.60392701626
          -1.6531227827 -13.702144623 -0.68548309803 0.47707006335 -13.467913628 0.2899414897
          -3.7766387463 -5.0685124397 0.18289977312 -3.9286222458 -7.8205885887 0.27814894915
          -3.5523326397 -11.055857658 -0.80991750956 -1.7029141188 -13.628083229 -0.33690321445
          3.940289259 -16.981567383 -2.6352628524e-08 7.0527739525 -17.209062576 0.3400618434
          -5.5830745697 -3.1622991562 -0.24106036127 -3.65254426 -10.908358574 -0.40288069844
          -5.8856334686 -5.2833509445 -1.9361418424e-07 15.055335045 -21.415533066 -0.79811739922
          0 0 0 -1.0522946119 -2.7038354874 0.55475276709
          -1.7146184444 -13.621448517 -1.4886504118e-07 1.1885967255 -16.889446259 -0.63129657507
          11.541804314 -21.042007446 -0.73479259014 13.693120003 -17.867500305 0.84738606215
          0 0 0 0 0 0
          -3.6662621498 -10.898872375 -2.24491842e-07 -5.3405413628 -8.4416160583 -0.88031166792
          15.076428413 -21.461854935 -0.39846792817 1.1722283363 -16.875551224 -0.31201764941
          11.560105324 -21.087945938 -0.36631175876 10.306728363 -17.476547241 0.76284265518
          -1.3415830135 -2.4751358032 0.24850574136 -2.0440678596 -10.450760841 0.5780158639
          -3.5540020466 -2.0280439854 -1.5142657757 -5.4859313965 -8.2743034363 -0.45306003094
          3.940251112 -16.968740463 0.31153443456 -5.8612451553 -5.2948980331 0.19732992351
          8.1246843338 -20.724294662 -0.67478114367 0.51508593559 -13.466715813 0.58964717388
          -3.757638216 -7.9190793037 0.57020366192 0 0 0
          -2.2172718048 -5.5893030167 0.087053447962 15.080168724 -21.477048874 1.0113724613e-07
          -1.4335124493 -2.4242842197 0.036351077259 1.1689072847 -16.878860474 -7.2392786876e-08
          8.1339654922 -20.763288498 -0.33616796136 7.044924736 -17.155513763 0.68242496252
          11.565556526 -21.102602005 7.1236506471e-08 -5.2392096519 -3.0842342377 -0.42971420288
          -5.4568533897 -8.2848377228 -2.7559477189e-07 -2.2571148872 -5.522257328 0.087090179324
          -1.7029141188 -13.628083229 0.33690291643 -3.65254426 -10.90835762 0.40288025141
          -3.2415540218 -14.290392876 -0.93699002266 8.1379528046 -20.77611351 3.9036891053e-08
          -2.296872139 -5.4550852776 0.087080158293 -3.277258873 -14.128927231 -0.46840593219
          4.863764286 -20.493204117 -0.63614374399 0 0 0
          -2.2174320221 -6.0559887886 0.047304924577 15.076428413 -21.461854935 0.39846813679
          -1.3936531544 -2.4496588707 -0.18683236837 1.1722283363 -16.875551224 0.3120175004
          4.8654127121 -20.513031006 -0.31592416763 3.9464046955 -16.937294006 0.6272764802
          11.560106277 -21.087945938 0.36631187797 -1.1347738504 -17.085309982 -0.74121338129
          -4.8766517639 -11.872205734 -1.2482683659 -5.5915813446 -5.4138250351 0.38848176599
          -2.2571833134 -5.9888548851 0.04731920734 -5.4859313965 -8.2743034363 0.45305946469
          -1.1503514051 -17.004938126 -0.36517041922 -4.9111270905 -11.653033257 -0.61331105232
          -3.2767767906 -14.112615585 -2.2466254279e-07 -1.6531227827 -13.702143669 0.68548280001
          8.1339654922 -20.763286591 0.33616805077 -3.5523326397 -11.055857658 0.80991703272
          4.8675074577 -20.521430969 2.5370967549e-09 -2.3365268707 -5.3878359795 0.08704251796
          -2.2969098091 -5.9216604233 0.047352712601 -1.1520571709 -16.995407104 -1.3020159884e-07
          -4.8653960228 -11.656541824 -3.1781490861e-07 -4.4020972252 -10.269974709 -2.1116502285
          1.9324572086 -20.41166687 -0.64743548632 15.055335045 -21.415533066 0.79811757803
          0 0 0 -3.277258873 -14.128927231 0.46840548515
          -1.1092814207 -2.6706762314 -0.54720020294 -4.2573485374 -9.8960075378 -0.95864850283
          1.1885967255 -16.889446259 0.63129645586 11.541804314 -21.042007446 0.73479276896
          1.9315948486 -20.392694473 -0.32090187073 16.351564407 -25.044445038 -0.76482975483
          0 0 0 -5.3405413628 -8.4416151047 0.88031107187
          16.366636276 -25.081720352 -0.38163116574 -1.1133621931 -3.2752585411 0.51188826561
          12.737550735 -24.683315277 -0.71287977695 4.8654131889 -20.513031006 0.31592416763
          0 0 0 -2.3366019726 -5.8544402122 0.04740358144
          12.751220703 -24.720176697 -0.35559183359 -1.0833852291 -3.1202721596 0.14342327416
          -1.1503512859 -17.004938126 0.365170151 -4.9111270905 -11.653033257 0.61331039667
          8.1246843338 -20.724294662 0.67478120327 -4.1543302536 -9.9484357834 -4.2670691869e-07
          1.9329520464 -20.39323616 -4.1297880671e-08 -2.3760471344 -5.3205342293 0.08700414747
          -2.7967793941 -17.604158401 -0.98109465837 -2.6836783886 -5.5894241333 0.020056094974
          9.1975898743 -24.368650436 -0.66455113888 -4.3567352295 -15.168236732 -1.3722215891
          16.370033264 -25.093687057 1.2800637705e-07 0 0 0
          -2.7817132473 -17.461006165 -0.488794595 12.755479813 -24.731729507 1.0289717522e-07
          -1.0969930887 -3.0911889076 0.016127446666 9.2068815231 -24.399713516 -0.33123025298
          -2.7236351967 -5.5222988129 0.01992983371 -4.3086013794 -14.966979027 -0.67060822248
          -3.2415537834 -14.290392876 0.93698960543 -2.7708003521 -17.443660736 -2.0469288131e-07
          -3.7549130917 -14.052114487 -2.0193400383 -4.2573485374 -9.8960065842 0.95864766836
          -0.51848113537 -20.544214249 -0.75194227695 9.2105836868 -24.409872055 7.4987134724e-08
          4.863764286 -20.493204117 0.63614374399 1.9315948486 -20.392694473 0.32090181112
          -4.2658658028 -14.95639801 -3.252377212e-07 -2.7634224892 -5.4550857544 0.019858315587
          -2.3762125969 -5.7872214317 0.047416377813 16.366636276 -25.081720352 0.38163143396
          5.8071093559 -24.125335693 -0.63448756933 -3.5789761543 -13.792758942 -0.93984806538
          -2.6838197708 -6.0561552048 -0.019914815202 -0.5090367794 -20.472074509 -0.37202635407
          -1.1347737312 -17.085309982 0.74121314287 -4.8766517639 -11.872205734 1.2482677698
          0 0 0 -2.7237043381 -5.9889264107 -0.019896233454
          12.751220703 -24.720174789 0.35559204221 -1.1145825386 -3.0846657753 -0.11584929377
          5.8137564659 -24.14027977 -0.31543558836 -3.5546238422 -13.73327446 -5.1186503924e-07
          -0.50359672308 -20.463064194 -9.5573369663e-08 -2.7817132473 -17.461006165 0.48879417777
          5.8171010017 -24.146802902 4.2265046574e-08 -2.7634453773 -5.9217147827 -0.019863534719
          9.2068815231 -24.399713516 0.33123040199 -2.803062439 -5.3878531456 0.019790068269
          -4.3086013794 -14.966979027 0.67060756683 -4.4020972252 -10.269973755 2.1116495132
          1.9324573278 -20.41166687 0.64743536711 2.7256472111 -24.000131607 -0.64585453272
          16.351564407 -25.044445038 0.76483005285 0 0 0
          -4.0181660652 -11.496425629 -2.5057880878 -1.1573858261 -3.1965019703 -0.5152605772
          12.737550735 -24.683315277 0.71288001537 -3.5789756775 -13.792758942 0.9398470521
          -0.5090367198 -20.472074509 0.37202617526 2.7352499962 -23.983705521 -0.32095128298
          -3.7493560314 -18.387105942 -1.3141989708 -3.7184348106 -11.188110352 -1.244566679
          -2.80311656 -5.8545322418 -0.01980930008 5.8137564659 -24.140277863 0.31543567777
          -3.6536092758 -18.255800247 -0.64796286821 -2.2319803238 -20.939146042 -0.94982892275
          -3.4594123363 -16.820503235 -1.7349872589 17.606437683 -28.741510391 -0.74476522207
          0 0 0 13.902302742 -28.387563705 -0.69783306122
          -2.7967791557 -17.604158401 0.98109430075 -2.8424859047 -5.3206300735 0.019681632519
          9.1975898743 -24.368650436 0.66455131769 -3.2836821079 -16.7335186 -0.84101223946
          -2.1846139431 -20.832212448 -0.47412472963 -4.3567352295 -15.168236732 1.372220993
          17.616294861 -28.774827957 -0.37152597308 0 0 0
          -3.6951122284 -11.126075745 -1.0923521359e-06 2.7397899628 -23.984333038 3.0382694138e-09
          0.034549292177 -3.6999721527 -0.046766519547 13.911536217 -28.420413971 -0.34834760427
          0.015794195235 -3.5153946877 -0.037963159382 -3.6172163486 -18.242603302 -2.9899280207e-07
          10.259634018 -28.073612213 -0.65470635891 -3.268499136 -16.683387756 -4.7813426818e-07
          -2.168399334 -20.818475723 -1.6395500779e-07 17.619235992 -28.785383224 1.604562101e-07
          0 0 0 0.039631839842 -5.4773888588 -0.075466245413
          10.267842293 -28.101690292 -0.32656437159 13.91471386 -28.430656433 1.4100737644e-07
          -3.7549123764 -14.052114487 2.0193390846 -0.51848101616 -20.544214249 0.75194209814
          0.010554861277 -3.5347588062 -0.034378584474 0.028822490945 -5.3943777084 -0.081715151668
          5.8071093559 -24.125335693 0.63448762894 -2.8426101208 -5.7873749733 -0.019726280123
          -2.5209522247 -15.920240402 -1.8533751965 0.17795595527 -24.053771973 -0.73668122292
          -3.7184355259 -11.188109398 1.2445645332 2.7352499962 -23.983705521 0.32095128298
          -2.2749950886 -15.971669197 -0.94099217653 0.20430594683 -23.998332977 -0.36419016123
          -3.6536090374 -18.255800247 0.64796233177 10.271074295 -28.110898972 1.1873950001e-07
          0.017341606319 -5.3561935425 -0.078295379877 6.7635817528 -27.819065094 -0.62709760666
          -3.2836816311 -16.7335186 0.84101134539 -2.1846137047 -20.832212448 0.47412440181
          17.616294861 -28.774827957 0.37152630091 0 0 0
          0.030590793118 -7.120033741 -0.060740951449 6.7732300758 -27.834152222 -0.31201198697
          13.911536217 -28.420413971 0.3483478725 0.040386728942 -7.0725603104 -0.077224202454
          -2.3083415031 -15.820972443 -7.0081119929e-07 0.21411451697 -23.992195129 -4.5230262202e-08
          0.0041966973804 -3.4776599407 -0.031669389457 10.267842293 -28.101690292 0.32656461
          6.7771668434 -27.840684891 9.2677069574e-08 0.023651182652 -7.0091114044 -0.07909976691
          2.7256474495 -24.000131607 0.64585453272 -3.0983936787 -21.518568039 -1.1581600904
          0.0066014938056 -5.3112597466 -0.076296240091 -4.0181684494 -11.496422768 2.5057866573
          -3.0169503689 -19.524768829 -1.4138572216 -2.9871408939 -21.459823608 -0.57770138979
          -3.749355793 -18.387104034 1.3141983747 -2.8606507778 -19.57384491 -0.70573925972
          -2.2749946117 -15.971669197 0.94099080563 0.20430600643 -23.998332977 0.36419007182
          -2.2319800854 -20.939146042 0.94982862473 -3.4594118595 -16.820503235 1.7349864244
          0.030826032162 -10.627289772 -0.037952739745 3.5690617561 -27.658662796 -0.63383460045
          17.606437683 -28.741510391 0.7447655797 0 0 0
          13.902302742 -28.387563705 0.69783335924 0.04067787528 -11.317676544 -0.04420035705
          -2.9563803673 -21.453796387 -2.4655864195e-07 -2.154519558 -18.271595001 -1.3573063612
          -1.5740392208 -24.304080963 -0.87324690819 3.5859088898 -27.650365829 -0.3145724535
          -0.012012543157 -3.6062710285 -0.031892359257 -2.8497972488 -19.556678772 -4.1974922738e-07
          6.7732305527 -27.834152222 0.31201216578 0.0077731371857 -6.9911527634 -0.076383039355
          -1.5105918646 -24.238834381 -0.43709027767 -1.9698915482 -18.529855728 -0.68237906694
          10.259634018 -28.073612213 0.65470659733 0.024661835283 -11.129034042 -0.046923208982
          3.5919685364 -27.652719498 6.0716637051e-08 -0.0070635657758 -5.2729363441 -0.06179414317
          -1.4924771786 -24.231084824 -1.0483313417e-07 18.837438583 -32.504123688 -0.73491698503
          0 0 0 -1.9897506237 -18.465633392 -6.1955506681e-07
          18.843151093 -32.536895752 -0.36681041121 0 0 0
          -2.9871406555 -21.459823608 0.57770091295 15.050682068 -32.152606964 -0.68959963322
          -2.5209512711 -15.920240402 1.8533737659 0.17795611918 -24.053770065 0.73668116331
          1.2041329145 -3.271643877 -0.60654103756 -2.8606505394 -19.57384491 0.70573842525
          15.056586266 -32.185012817 -0.34425970912 1.1327364445 -3.1218013763 -0.2080193162
          6.7635817528 -27.819065094 0.62709784508 18.845569611 -32.54743576 2.0013790447e-07
          0.0079303281382 -11.296339035 -0.04062853381 11.316393852 -31.835474014 -0.64684712887
          2.8648538589 -5.5219197273 -0.18484029174 3.5859091282 -27.650365829 0.31457257271
          0 0 0 0.95489090681 -27.635385513 -0.69596135616
          0.018193559721 -17.01720047 -0.017826611176 0.017358221114 -6.9197497368 -0.055213674903
          2.8406405449 -5.4907193184 -0.18469570577 11.323662758 -31.864318848 -0.32268431783
          15.059047699 -32.195293427 1.8773346255e-07 -1.5105917454 -24.238834381 0.43709006906
          0.021637858823 -17.66913414 -0.0086536183953 0.992220819 -27.602287292 -0.34465768933
          -1.9698910713 -18.529855728 0.68237781525 1.1217105389 -3.0954897404 -0.06842443347
          -2.4731218815 -22.254631042 -1.1112759113 11.32657814 -31.873756409 1.7256596152e-07
          -3.0983934402 -21.518568039 1.1581596136 2.8161754608 -5.4594736099 -0.18461766839
          0.021583978087 -17.574438095 -8.7721412001e-07 -2.3389978409 -22.373598099 -0.56475609541
          1.0035904646 -27.60017395 2.0329494532e-08 -3.016949892 -19.524768829 1.4138563871
          18.843151093 -32.536895752 0.36681082845 7.7265462875 -31.567098618 -0.61504328251
          -1.8090628386 -20.398107529 -0.95365661383 0 0 0
          2.8649969101 -5.9894461632 -0.2090279609 -2.40173769 -24.672315598 -0.97762537003
          2.8407046795 -5.9581251144 -0.20910772681 7.737862587 -31.586517334 -0.30641412735
          15.056586266 -32.185012817 0.34426009655 -1.6794284582 -20.731164932 -0.49160209298
          -2.2928152084 -24.669878006 -0.49067232013 1.1167253256 -3.0905714035 0.064685054123
          0.02045045048 -10.586489677 -0.028620261699 3.5690619946 -27.658662796 0.63383471966
          -2.329002142 -22.385511398 -3.4356517631e-07 -2.1545186043 -18.271595001 1.3573051691
          -1.5740389824 -24.304080963 0.87324666977 7.7418169975 -31.594009399 1.5439292156e-07
          11.323662758 -31.864318848 0.32268467546 -1.6899236441 -20.748447418 -5.2563137842e-07
          2.7915313244 -5.4282188416 -0.18455938995 2.8161995411 -5.9268336296 -0.20918275416
          0.021638415754 -17.66913414 0.0086517836899 0.9922208786 -27.602285385 0.34465771914
          -2.2664191723 -24.673305511 -1.7497728777e-07 -0.85566663742 -27.733308792 -0.77246159315
          0.020396057516 -18.999847412 -0.011937618256 -0.78768014908 -27.705543518 -0.3880495429
          0.021617501974 -19.576305389 -0.0058326027356 18.837438583 -32.504123688 0.73491740227
          0 0 0 -2.338997364 -22.373598099 0.56475543976
          4.0746636391 -11.513217926 2.5168104172 4.4362664223 -31.370065689 -0.60795235634
          3.7688975334 -11.202166557 1.248826623 15.050683022 -32.152606964 0.68960005045
          1.1110949516 -3.2068166733 0.45871499181 4.457429409 -31.37345314 -0.30258476734
          7.7378630638 -31.586517334 0.30641445518 -1.6794279814 -20.731164932 0.4916010499
          2.791585207 -5.8956084251 -0.20924697816 -2.2928152084 -24.669878006 0.4906719923
          -0.76972430944 -27.704460144 -2.9675339519e-08 0.021377520636 -19.562269211 -7.2971255349e-07
          11.316393852 -31.835474014 0.6468474865 2.7666432858 -5.3969712257 -0.18446034193
          0.95489108562 -27.635385513 0.69596141577 3.7448351383 -11.14040184 -2.2797510155e-06
          0.018194641918 -17.01720047 0.017824644223 4.4639644623 -31.378145218 1.3053863768e-07
          20.058120728 -36.332252502 -0.73247671127 0 0 0
          -2.4731214046 -22.254631042 1.1112753153 -0.78768002987 -27.705543518 0.3880494833
          0 0 0 16.192907333 -35.980503082 -0.68512886763
          -1.4402534962 -22.749977112 -0.68038702011 0.021618045866 -19.576305389 0.0058311177418
          1.1711468697 -2.676651001 -0.62902230024 -1.9155839682 -25.095808029 -0.85484588146
          20.061101913 -36.367031097 -0.3657810688 7.7265467644 -31.567098618 0.61504358053
          16.196575165 -36.01499939 -0.34211277962 1.3931481838 -2.4742803574 -0.28546413779
          -1.8090621233 -20.398107529 0.95365560055 -1.3450725079 -23.063976288 -0.35594642162
          2.7668032646 -5.8644433022 -0.20931889117 1.7534532547 -31.270832062 -0.63578701019
          3.7688975334 -11.202166557 -1.2488313913 -2.4017372131 -24.672315598 0.9776250124
          2.5693585873 -15.945451736 1.8456734419 4.457429409 -31.37345314 0.30258503556
          -1.802746892 -25.236476898 -0.43960213661 2.3209843636 -16.00154686 0.93713676929
          1.7952305079 -31.260305405 -0.31668618321 12.371350288 -35.659263611 -0.63930773735
          20.063150406 -36.37834549 2.4889294536e-07 2.3976984024 -5.5218000412 -0.21591171622
          0 0 0 12.377886772 -35.691417694 -0.31901684403
          2.3733739853 -5.4906959534 -0.21591879427 16.198312759 -36.026119232 2.4514901042e-07
          -1.6832078695 -27.906827927 -0.80180108547 -1.3470625877 -23.116285324 -4.1890547209e-07
          -1.7909708023 -25.26354599 -2.4969435231e-07 0.021568879485 -20.753635406 -0.0094966823235
          1.4578065872 -2.4340367317 -0.057518426329 -1.58530128 -27.94052887 -0.40410298109
          1.8068869114 -31.262887955 9.9158739886e-08 0.021935500205 -21.250879288 -0.0048082019202
          2.3545176983 -15.850036621 -8.2267803236e-07 -0.855666399 -27.733308792 0.77246153355
          12.380250931 -35.701934814 2.383078197e-07 0.02039703168 -18.999849319 0.011936091818
          2.3488900661 -5.4594659805 -0.21588221192 8.6911964417 -35.378463745 -0.60005551577
          20.061101913 -36.367031097 0.36578154564 -1.5631674528 -27.951776505 -8.5998372867e-08
          2.3978757858 -5.9892568588 -0.24034820497 4.0746660233 -11.513217926 -2.516815424
          0.021731199697 -21.303871155 -5.8686430293e-07 4.4362664223 -31.370065689 0.60795259476
          0 0 0 8.7031087875 -35.404521942 -0.29935032129
          2.3734517097 -5.9580245018 -0.24039050937 16.196575165 -36.01499939 0.34211328626
          -1.345072031 -23.063976288 0.35594558716 -1.8027465343 -25.236476898 0.43960165977
          1.3849229813 -2.4607977867 0.17019124329 1.7952305079 -31.260305405 0.31668639183
          2.3209848404 -16.00154686 -0.93713837862 12.377886772 -35.691417694 0.31901732087
          8.7068576813 -35.413845062 2.2799778776e-07 -0.096739239991 -31.25154686 -0.66922330856
          2.2021195889 -18.29341507 1.3448698521 2.3489356041 -5.9267773628 -0.24044021964
          2.3242735863 -5.4281864166 -0.21583738923 2.016759634 -18.556249619 0.67607700825
          -1.5853010416 -27.94052887 0.40410280228 -0.03152385354 -31.252689362 -0.33585074544
          0.021936027333 -21.250879288 0.0048070200719 5.3157625198 -35.148311615 -0.57827955484
          20.058122635 -36.332252502 0.73247724771 0 0 0
          4.4676356316 -10.279751778 2.1135971546 5.3381700516 -35.164558411 -0.28759086132
          16.192907333 -35.980503082 0.68512934446 4.3224396706 -9.9032611847 0.95882558823