<?xml version="1.0"?>
<VTKFile type="UnstructuredGrid" version="0.1" byte_order="LittleEndian" header_type="UInt32" compressor="vtkZLibDataCompressor">
  <UnstructuredGrid>
    <Piece NumberOfPoints="6405" NumberOfCells="4800">
      <PointData>
        <DataArray type="Float32" Name="DISPLACEMENT" NumberOfComponents="3" ComponentName0="X-DISPLACEMENT" ComponentName1="Y-DISPLACEMENT" ComponentName2="Z-DISPLACEMENT" format="ascii" RangeMin="0" RangeMax="251.35865496">
          0 0 0 0 0 0
          1.9739848375 -1.2093122005 -0.91383397579 0 0 0
          1.2791597843 -0.71473932266 -0.71108090878 0 0 0
          1.8016569614 -1.3323404789 -0.36351338029 1.1125767231 -0.81626266241 -0.29002887011
          0 0 0 3.5408723354 -2.2055902481 -0.9380684495
          0 0 0 3.4895250797 -2.3507330418 -0.48457992077
          2.5692765713 -1.8079966307 -0.78514617682 0 0 0
          0 0 0 1.8076945543 -1.374509573 -4.8227889238e-07
          0.93866074085 -0.4831430912 -0.55006253719 1.1081204414 -0.83686333895 -2.8366036986e-07
          2.5140993595 -1.923718214 -0.40089964867 0.8061645627 -0.57756328583 -0.22302509844
          3.4500677586 -2.3917629719 -1.2227823163e-06 1.8797540665 -1.4757260084 -0.61848461628
          0 0 0 2.479722023 -1.9621362686 -8.2879148522e-07
          1.8227334023 -1.5826833248 -0.31707435846 0 0 0
          4.9678411484 -3.4773197174 -0.88224697113 0 0 0
          0.7993517518 -0.5951436758 -4.6203595616e-08 0 0 0
          0 0 0 1.801656723 -1.3323407173 0.36351239681
          3.7838039398 -3.0940971375 -0.7511523366 4.9820113182 -3.5827891827 -0.45017331839
          0.65995365381 -0.31662714481 -0.37317943573 1.1125763655 -0.81626307964 0.29002824426
          3.7957158089 -3.1935245991 -0.38283613324 0.5770560503 -0.41823995113 -0.15461371839
          1.7930654287 -1.6112465858 -3.7805330066e-07 3.4895243645 -2.350733757 0.48457738757
          0 0 0 0 0 0
          1.2954344749 -1.2600296736 -0.43973433971 2.8378353119 -2.7904047966 -0.62176632881
          4.9694619179 -3.6213672161 -2.1920370727e-06 2.5140984058 -1.9237191677 0.40089792013
          2.8306548595 -2.884749651 -0.31560283899 0.80616420507 -0.57756382227 0.22302494943
          3.7869575024 -3.2269389629 -1.5969228571e-06 1.2372024059 -1.3633301258 -0.22509463131
          0.58706569672 -0.43219742179 2.9445882888e-07 0 0 0
          6.2980465889 -4.9155516624 -0.79360640049 0 0 0
          4.9364695549 -4.5636138916 -0.69448202848 1.8227325678 -1.5826843977 0.317073524
          6.3328018188 -4.9933748245 -0.4018509984 1.9739840031 -1.2093126774 0.9138328433
          0 0 0 0 0 0
          1.2172635794 -1.3888610601 1.5173993972e-07 2.8211939335 -2.9139397144 -9.551755511e-07
          0.2251406908 -0.21231934428 -0.16632716358 4.96768713 -4.6408481598 -0.35028335452
          1.2791587114 -0.71474015713 0.71108007431 1.9817969799 -2.5881111622 -0.49005702138
          0 0 0 4.9820098877 -3.5827903748 0.45016884804
          0.17235448956 -0.33733737469 -0.084089972079 1.9550017118 -2.672523737 -0.24968406558
          3.7957143784 -3.1935257912 0.38283288479 0.57705539465 -0.41824060678 0.15461418033
          3.7756407261 -4.2802042961 -0.59612756968 0.48969909549 -1.129638195 -0.27841970325
          6.3337936401 -5.0208234787 -3.3405556223e-06 3.5408704281 -2.2055916786 0.93806570768
          0 0 0 0 0 0
          3.7897410393 -4.3556442261 -0.30068519711 2.5692746639 -1.8079984188 0.78514420986
          4.9723877907 -4.6677904129 -2.5762426503e-06 0.42734673619 -1.2262377739 -0.14508371055
          0.93865996599 -0.48314419389 0.55006217957 0.19446460903 -0.36780279875 7.6579163988e-07
          1.9448064566 -2.6995794773 -2.0072970131e-07 2.8306536674 -2.8847513199 0.31560087204
          1.237201333 -1.3633314371 0.22509489954 3.7906558514 -4.3813691139 -1.7676848074e-06
          1.8797522783 -1.4757282734 0.618483603 0.4164827466 -1.2540181875 7.7980502056e-07
          2.7029793262 -4.0781822205 -0.50234740973 6.3327999115 -4.9933767319 0.40184423327
          4.9678387642 -3.4773221016 0.88224226236 0 0 0
          7.5234422684 -6.4834728241 -0.71984767914 0 0 0
          0 0 0 1.0023312569 -2.4455502033 -0.40466433764
          2.702395916 -4.149869442 -0.25383046269 7.5576577187 -6.5419793129 -0.36186233163
          6.0209112167 -6.1558885574 -0.6434930563 4.9676852226 -4.6408500671 0.35027810931
          0.063537344337 -0.37420409918 -0.19792407751 0 0 0
          3.7838010788 -3.0940999985 0.75114887953 0.65995281935 -0.31662845612 0.37317964435
          0.96174609661 -2.5154149532 -0.19511009753 0.17235326767 -0.33733808994 0.084091298282
          -0.0098907286301 -0.4174502492 -0.068033017218 1.9550004005 -2.6725256443 0.24968363345
          6.0523433685 -6.2167000771 -0.32233217359 3.7897391319 -4.3556466103 0.30068159103
          2.7000277042 -4.1758565903 -8.3362829173e-07 7.5638241768 -6.562830925 -4.6645845941e-06
          0.2469137758 -1.3414180279 -0.33261445165 0.42734530568 -1.2262390852 0.14508527517
          0 0 0 4.6850719452 -5.8859386444 -0.56533974409
          1.2954329252 -1.260032177 0.43973448873 2.8378326893 -2.790407896 0.62176418304
          0.94595748186 -2.5404908657 7.3329647421e-07 6.060508728 -6.2379140854 -3.7734687339e-06
          0.015051187016 -0.48248922825 1.8845649947e-06 0.2363525629 -1.3677033186 -0.13433133066
          4.7049975395 -5.9473757744 -0.28353062272 6.2980427742 -4.9155545235 0.79359936714
          0 0 0 1.6782381535 -3.9180665016 -0.42153835297
          4.9364652634 -4.5636172295 0.69447660446 0.24201393127 -1.4076697826 2.2952751806e-06
          1.6612867117 -3.9890773296 -0.20641593635 4.7101221085 -5.9686770439 -2.8255844882e-06
          0.225139305 -0.2123208344 0.16632808745 2.7023942471 -4.1498718262 0.25382876396
          3.4539060593 -5.6747694016 -0.48637321591 7.5576553345 -6.5419807434 0.36185291409
          0.44996893406 -2.4625415802 -0.29926505685 1.9817945957 -2.5881147385 0.49005645514
          0 0 0 0.96174448729 -2.5154168606 0.19511158764
          3.4618675709 -5.7372455597 -0.2442086041 -0.0098923463374 -0.41745111346 0.068036496639
          0.47490346432 -2.5527896881 -0.14665995538 6.0523409843 -6.2167019844 0.32232454419
          3.7756371498 -4.2802085876 0.59612381458 0.48969706893 -1.1296410561 0.27842119336
          8.6580734253 -8.1434202194 -0.66608166695 0 0 0
          1.6423001289 -4.008690834 3.2688799934e-07 7.0410494804 -7.8369250298 -0.60305637121
          8.6853580475 -8.1913509369 -0.33377084136 0 0 0
          0.052482970059 -0.62977260351 -0.052017200738 7.0666532516 -7.8875966072 -0.30100131035
          3.4615316391 -5.758286953 -1.745921054e-06 -0.42551988363 -0.52625513077 -0.052345745265
          0.23635056615 -1.3677047491 0.1343357265 0.48224008083 -2.5915694237 2.1511646082e-06
          4.7049946785 -5.9473781586 0.28352490067 5.5577917099 -7.5844926834 -0.53661781549
          -0.26785239577 -1.4887741804 -0.22979258001 8.6921749115 -8.2082557678 -6.1907999225e-06
          0 0 0 -0.35405912995 -1.4576348066 -0.11697371304
          5.5765490532 -7.6362376213 -0.26757356524 7.0742249489 -7.9050898552 -5.2154759942e-06
          -0.48626607656 -0.55514889956 3.6372864542e-06 2.7029759884 -4.0781869888 0.50234562159
          2.3039484024 -5.5053405762 -0.39610907435 7.5234370232 -6.483476162 0.71983796358
          0 0 0 0.70299392939 -3.826176405 -0.2516952157
          1.661285162 -3.9890799522 0.2064166069 1.0023285151 -2.445554018 0.40466576815
          6.0209059715 -6.1558923721 0.64348518848 0.063535958529 -0.37420651317 0.19792725146
          0.70379781723 -3.9173047543 -0.14493909478 2.3010103703 -5.5721578598 -0.20095199347
          3.4618651867 -5.7372484207 0.24420508742 0.47490137815 -2.5527918339 0.14666427672
          5.5817074776 -7.6537475586 -4.1409130063e-06 -0.43082556129 -1.4023814201 3.5492073494e-06
          4.1827931404 -7.3998146057 -0.46913045645 -0.11684725434 -2.6646595001 -0.24713280797
          0.246911183 -1.3414219618 0.33261883259 8.6853551865 -8.1913528442 0.33375838399
          4.6850671768 -5.8859434128 0.56533384323 0 0 0
          2.2994685173 -5.5910401344 -4.6103014029e-07 0.70546990633 -3.9313001633 1.798352514e-06
          4.193043232 -7.4492516518 -0.23263272643 7.0666499138 -7.8875989914 0.30099079013
          -0.15388895571 -2.7183094025 -0.10433574021 -0.42552033067 -0.52625739574 0.052353013307
          1.6782349348 -3.9180719852 0.42153906822 4.1950984001 -7.4642148018 -2.9257766982e-06
          5.5765461922 -7.6362404823 0.26756522059 -0.35406044126 -1.4576369524 0.11698129028
          -0.13970567286 -2.7506446838 3.7843667542e-06 9.7251377106 -9.8764190674 -0.6308376193
          0 0 0 9.744682312 -9.9202356339 -0.31552407146
          3.4539015293 -5.6747751236 0.48636963964 8.006360054 -9.5855150223 -0.57271701097
          0.44996538758 -2.4625458717 0.29926940799 0.98746389151 -5.3768572807 -0.28162905574
          -0.037213481963 -0.77610480785 -0.073715947568 0.70379585028 -3.9173076153 0.14494262636
          2.3010084629 -5.5721611977 0.2009511143 0 0 0
          8.0251235962 -9.6314315796 -0.28513079882 0.98090130091 -5.4525103569 -0.15001058578
          -0.017257302999 -0.78706502914 -0.030631929636 2.8823709488 -7.2878446579 -0.39789587259
          0.072842329741 -4.0413370132 -0.31900602579 8.6580667496 -8.1434240341 0.66606891155
          0 0 0 7.0410428047 -7.8369293213 0.60304558277
          9.7507343292 -9.9354104996 -7.9749142969e-06 0.026880132034 -4.0487494469 -0.12313225865
          2.877853632 -7.3250370026 -0.19892582297 0.052483242005 -0.62977391481 0.052021879703
          6.3829221725 -9.3524637222 -0.51043200493 -0.055625133216 -1.6827732325 -0.13313114643
          0 0 0 4.1930403709 -7.4492545128 0.23262682557
          -0.15389063954 -2.7183115482 0.10434351116 8.0307435989 -9.6465454102 -6.9565639933e-06
          0.99756664038 -5.4764232635 1.0087445617e-06 6.3980937004 -9.3977422714 -0.25261282921
          -0.11739449948 -1.6765855551 -0.079405926168 -0.029269846156 -0.79345494509 2.2795836685e-06
          5.557785511 -7.5844974518 0.53660923243 -0.26785495877 -1.4887789488 0.22980050743
          2.8782138824 -7.3359675407 -1.5359353256e-06 0.049564048648 -4.0856590271 3.3147282466e-06
          2.3039445877 -5.5053472519 0.39610826969 6.400765419 -9.4113445282 -5.7587158153e-06
          -0.1325327754 -1.6592904329 3.946934612e-06 0.70299047232 -3.8261823654 0.25169888139
          9.7446784973 -9.9202375412 0.31550803781 4.8577122688 -9.2035417557 -0.44875773787
          0 0 0 -0.11883603781 -2.8125648499 -0.15484155715
          4.8676495552 -9.2429523468 -0.21995410323 8.0251197815 -9.6314334869 0.28511679173
          -0.017257692292 -0.78706598282 0.030635936186 0.98089963198 -5.4525136948 0.15001286566
          -0.14853703976 -2.8590834141 -0.082631729543 4.1827869415 -7.3998208046 0.46912446618
          1.471973896 -7.1902923584 -0.378374964 2.8778512478 -7.3250412941 0.19892284274
          -0.11684982479 -2.6646647453 0.24714103341 0.026878941804 -4.0487532616 0.12313937396
          0.35273703933 -5.6164526939 -0.40119573474 1.4393821955 -7.2090988159 -0.17303450406
          4.866276741 -9.2550878525 -4.3890490815e-06 6.3980894089 -9.3977451324 0.2526012063
          -0.11739506572 -1.676587224 0.079413622618 0.33349332213 -5.5973157883 -0.15291251242
          -0.17752887309 -2.8599922657 4.9570139709e-06 10.751148224 -11.677567482 -0.61121243238
          0 0 0 0.005547454115 -0.85952121019 -0.031542640179
          1.4228805304 -7.2147841454 1.3836900337e-07 3.423542738 -9.1403656006 -0.40549892187
          8.9321947098 -11.394317627 -0.55098503828 9.7251300812 -9.8764228821 0.63082134724
          0 0 0 0 0 0
          0.33859694004 -5.6299738884 2.731131417e-06 -0.14971753955 -4.1697468758 -0.13750246167
          10.763563156 -11.722103119 -0.30522415042 3.4259159565 -9.1667366028 -0.19788829982
          8.9448747635 -11.440112114 -0.2738224566 8.0063524246 -9.585518837 0.57270276546
          -0.017401818186 -0.88168239594 -0.016420081258 0.98746091127 -5.3768649101 0.28163194656
          -0.037212591618 -0.77610576153 0.073719874024 -0.18434564769 -4.2331643105 -0.10738009959
          4.8676452637 -9.2429542542 0.21994520724 -0.14853827655 -2.8590853214 0.082641378045
          7.1686501503 -11.168164253 -0.48577830195 2.882365942 -7.2878522873 0.39789289236
          0.072840154171 -4.0413441658 0.31901365519 0 0 0
          -0.047103598714 -1.8258925676 -0.064714841545 10.768341064 -11.737048149 -1.0088006093e-05
          -0.016087688506 -0.88575965166 1.8356009832e-06 3.4230251312 -9.1779346466 -2.8336944524e-06
          7.1785440445 -11.209550858 -0.23862588406 6.3829140663 -9.3524684906 0.510420084
          8.9489574432 -11.45433712 -9.045040315e-06 -0.055624667555 -1.6827754974 0.13313785195
          -0.18325085938 -4.2398691177 5.9676167439e-06 -0.058681726456 -1.8625062704 -0.034055579454
          1.4393823147 -7.2091040611 0.1730350554 0.33349248767 -5.5973200798 0.1529185921
          0.65027582645 -7.2978749275 -0.37944105268 7.1779136658 -11.218000412 -7.7831064118e-06
          -0.064413100481 -1.8688770533 3.6697667838e-06 0.67497080564 -7.3173890114 -0.1747584641
          5.4882454872 -11.031487465 -0.41760599613 0 0 0
          -0.11251536757 -2.9856348038 -0.073993116617 10.763558388 -11.722105026 0.30520391464
          -0.017401915044 -0.88168287277 0.016423573717 3.4259121418 -9.1667404175 0.19788251817
          5.4841003418 -11.06180954 -0.20018577576 4.8577046394 -9.203546524 0.44874846935
          8.9448699951 -11.440114975 0.27380430698 2.1178386211 -9.0954046249 -0.40074440837
          -0.36269646883 -5.8644199371 -0.40085870028 -0.1188371256 -2.8125681877 0.15485005081
          -0.13017612696 -3.0299594402 -0.040318299085 -0.18434876204 -4.2331666946 0.10739128292
          2.0897378922 -9.1089468002 -0.18781125546 -0.33833158016 -5.8499445915 -0.1933837235
          0.67299324274 -7.327899456 2.6146656182e-06 1.4719724655 -7.1903018951 0.37837645411
          7.1785392761 -11.209552765 0.23861017823 0.35273432732 -5.616461277 0.40120244026
          5.4671573639 -11.063938141 -6.1844634729e-06 -0.058681990951 -1.8625071049 0.034062679857
          -0.136698246 -3.0406644344 5.2872533161e-06 2.0536284447 -9.1083269119 -7.5255252341e-07
          -0.32154452801 -5.8421492577 6.3768002292e-06 -0.19636978209 -4.3744015694 -0.094596117735
          3.9494481087 -10.98020649 -0.37310510874 10.751139641 -11.677571297 0.61119198799
          0 0 0 0.67496854067 -7.3173947334 0.1747636646
          0.0055488119833 -0.85952168703 0.031545966864 -0.20703749359 -4.4279603958 -0.047919988632
          3.4235348701 -9.1403722763 0.40549296141 8.9321861267 -11.394321442 0.55096668005
          3.9339470863 -11.004368782 -0.17344886065 11.7594347 -13.556536674 -0.60343271494
          0 0 0 -0.14972132444 -4.1697516441 0.13751144707
          11.766122818 -13.604337692 -0.30097696185 -0.016842233017 -0.90534740686 -0.0013992805034
          9.8361272812 -13.274199486 -0.53794962168 5.4840946198 -11.061811447 0.20017293096
          0 0 0 -0.13017711043 -3.0299606323 0.040328450501
          9.843173027 -13.322654724 -0.26739454269 -0.019090371206 -0.92668938637 -0.00064980454044
          2.0897371769 -9.1089515686 0.18780940771 -0.33833858371 -5.8499479294 0.19339630008
          7.1686406136 -11.168169022 0.4857622683 -0.21330223978 -4.4446892738 6.5540625656e-06
          3.9059200287 -11.015353203 -4.5045539991e-06 -0.0471024625 -1.8258936405 0.064721345901
          0.93243789673 -9.070561409 -0.30589327216 -0.052405659109 -1.920379281 -0.0091689182445
          7.9366083145 -13.041239738 -0.46720921993 -0.11270014197 -7.5649909973 -0.37924492359
          11.769610405 -13.619970322 -1.2542246623e-05 0 0 0
          0.93764156103 -9.1136388779 -0.16725532711 9.8458023071 -13.337430954 -1.15085777e-05
          -0.020333545282 -0.93284136057 1.5773950963e-06 7.9435172081 -13.084012032 -0.22945696115
          -0.058150984347 -1.9540456533 -0.0043730936013 -0.11760039628 -7.5705766678 -0.16346587241
          0.65027046204 -7.2978844643 0.37944465876 0.9473631978 -9.1246442795 1.3360612456e-06
          -0.21983836591 -5.9251146317 -0.085374958813 -0.20703990757 -4.42796278 0.047932628542
          2.6229739189 -10.968166351 -0.35716447234 7.9446592331 -13.092240334 -1.0259936971e-05
          5.4882359505 -11.031492233 0.41759240627 3.9339418411 -11.004370689 0.1734392941
          -0.089115634561 -7.5762262344 5.193663128e-06 -0.059336096048 -1.9644632339 3.3006085687e-06
          -0.11251556128 -2.9856367111 0.074002213776 11.766119003 -13.6043396 0.30095183849
          6.0996718407 -12.886916161 -0.39735069871 -0.24117892981 -6.0034165382 -0.063403710723
          -0.10566458851 -3.1014194489 -0.01424905844 2.6120786667 -10.97977066 -0.17656837404
          2.1178355217 -9.0954141617 0.40074127913 -0.36270594597 -5.8644280434 0.40086966753
          0 0 0 -0.10822644085 -3.143435955 -0.0065682758577
          9.8431682587 -13.322656631 0.2673714757 -0.019090341404 -0.92668956518 0.00065280374838
          6.0653676987 -12.907700539 -0.18891209364 -0.25073128939 -6.0053262711 7.4355257311e-06
          2.5951211452 -10.985415459 -2.8161607588e-06 0.93763649464 -9.1136426926 0.16725774109
          6.0211081505 -12.897379875 -8.7487096607e-06 -0.11088116467 -3.1568555832 4.966738743e-06
          7.9435124397 -13.084013939 0.22943633795 -0.058151017874 -1.954046011 0.0043795551173
          -0.11760799587 -7.5705804825 0.16347633302 -0.19637258351 -4.3744044304 0.094607181847
          3.9494385719 -10.980211258 0.37309461832 4.425265789 -12.851594925 -0.34993872046
          11.759426117 -13.556540489 0.60340750217 0 0 0
          -0.15276825428 -4.4728293419 -0.0091942586005 -0.01684079878 -0.90534740686 0.0014023053227
          9.8361177444 -13.2742033 0.53792637587 -0.24118301272 -6.0034189224 0.063417643309
          2.6120734215 -10.979773521 0.17656244338 4.3419623375 -12.839759827 -0.17033843696
          0.16110986471 -9.335943222 -0.40734696388 -0.15778367221 -4.5228524208 -0.0049978927709
          -0.10822699964 -3.1434366703 0.0065779341385 6.0653595924 -12.907702446 0.18889436126
          0.14864225686 -9.3106746674 -0.15516079962 1.2863203287 -10.930428505 -0.36177143455
          -0.31743055582 -7.5776562691 -0.079470522702 12.764830589 -15.531163216 -0.60281473398
          0 0 0 10.730648994 -15.247247696 -0.53259271383
          0.93242877722 -9.0705699921 0.30589488149 -0.052404135466 -1.9203794003 0.0091749457642
          7.9365978241 -13.041243553 0.4671882987 -0.3599704206 -7.6729869843 -0.098676398396
          1.2547495365 -10.922168732 -0.16404335201 -0.11271197349 -7.5649995804 0.37925419211
          12.767518997 -15.582463264 -0.30052554607 0 0 0
          -0.16119731963 -4.5387349129 6.392193427e-06 4.230910778 -12.810640335 -7.2792890933e-06
          -0.035779096186 -0.91784852743 0.026767916977 10.733827591 -15.298685074 -0.26537108421
          -0.028696056455 -0.93801099062 0.011255902238 0.1684653312 -9.3412866592 2.4558075893e-06
          8.7030773163 -15.003405571 -0.46053093672 -0.34763839841 -7.6766991615 6.4563505475e-06
          1.2273118496 -10.912010193 -1.4733695934e-06 12.769659996 -15.599081039 -1.523966057e-05
          0 0 0 -0.064349114895 -1.9456009865 0.034189067781
          8.7052145004 -15.052511215 -0.22821050882 10.735444069 -15.314862251 -1.4252849724e-05
          -0.21984425187 -5.9251189232 0.085387244821 2.6229634285 -10.968172073 0.3571574688
          -0.028352025896 -0.94392937422 1.2877551399e-06 -0.059495463967 -1.976200223 0.017889618874
          6.0996608734 -12.886920929 0.3973325491 -0.10566405952 -3.1014201641 0.014257866889
          -0.21248061955 -6.0229377747 -0.0057616345584 3.0395622253 -12.88391304 -0.36679816246
          -0.15778526664 -4.5228538513 0.0050102160312 4.3419542313 -12.839761734 0.17032389343
          -0.22158929706 -6.0846848488 -0.0034180106595 3.023753643 -12.869516373 -0.17747448385
          0.14863464236 -9.3106784821 0.15516664088 8.7062730789 -15.067030907 -1.3128968021e-05
          -0.05825887993 -1.9860730171 2.7799387681e-06 6.7119688988 -14.813446999 -0.39299675822
          -0.35997641087 -7.6729893684 0.098691374063 1.2547454834 -10.922172546 0.16404061019
          12.767515182 -15.582465172 0.3004950583 0 0 0
          -0.088350489736 -3.1280813217 0.038977798074 6.6845993996 -14.847437859 -0.19677947462
          10.733822823 -15.298686981 0.26534256339 -0.08626575768 -3.1654059887 0.020819770172
          -0.22301772237 -6.1080846786 7.3331220847e-06 3.0079162121 -12.855521202 -5.7295983424e-06
          -0.028695950285 -0.93801093102 -0.011253420264 8.7052097321 -15.052513123 0.22818417847
          6.6470532417 -14.852499008 -1.2073433027e-05 -0.085520319641 -3.1776845455 4.2753281377e-06
          4.4252538681 -12.851599693 0.34992355108 0.44684544206 -11.122504234 -0.39979806542
          -0.059495326132 -1.976200223 -0.017884142697 -0.15276962519 -4.4728307724 0.0092052873224
          -0.62318193913 -9.6093225479 -0.44041490555 0.46882334352 -11.11802578 -0.17261566222
          0.16109585762 -9.3359508514 0.40735268593 -0.58089870214 -9.5763816833 -0.22247897089
          -0.22159266472 -6.0846867561 0.0034322801512 3.0237474442 -12.869519234 0.17746296525
          1.2863105536 -10.930436134 0.36176890135 -0.31744268537 -7.5776605606 0.07948114723
          -0.10894089192 -4.495256424 0.043203573674 4.7934346199 -14.710716248 -0.35320776701
          12.764821053 -15.53116703 0.6027842164 0 0 0
          10.730639458 -15.247251511 0.53256422281 -0.107325688 -4.5369729996 0.023329792544
          0.45670881867 -11.113785744 4.5379132985e-07 -0.31294816732 -7.7730550766 -0.040485594422
          1.8558365107 -12.923937798 -0.38279673457 4.726246357 -14.712732315 -0.19273380935
          -0.03577773273 -0.91784822941 -0.026765342802 -0.56902080774 -9.5755395889 1.3273062905e-05
          6.6845927238 -14.847438812 0.19675558805 -0.086265966296 -3.1654062271 -0.020811429247
          1.792868495 -12.892410278 -0.17870745063 -0.31472349167 -7.8386259079 -0.019134009257
          8.7030658722 -15.003409386 0.46050444245 -0.1080544889 -4.552233696 5.5669670473e-06
          4.5896353722 -14.689371109 -1.1407990314e-05 -0.064347505569 -1.9456005096 -0.034183867276
          1.709348321 -12.849304199 -4.1957941903e-06 13.772695541 -17.618022919 -0.6046282053
          0 0 0 -0.31900966167 -7.8622012138 8.3165368778e-06
          13.773535728 -17.671766281 -0.3015550077 0 0 0
          0.46881222725 -11.118028641 0.17261746526 11.621946335 -17.33262825 -0.53151422739
          -0.21248541772 -6.0229401588 0.0057738875039 3.0395503044 -12.883917809 0.36678627133
          -0.054697848856 -0.89637231827 0.053809743375 -0.58091032505 -9.576385498 0.22248613834
          11.622802734 -17.386281967 -0.26552167535 -0.037173036486 -0.91633176804 0.022512659431
          6.7119555473 -14.81344986 0.39297285676 13.774603844 -17.689214706 -1.793113006e-05
          -0.10732671618 -4.5369734764 -0.023318978027 9.4731197357 -17.080831528 -0.45957171917
          -0.073815658689 -1.9011484385 0.076084017754 4.7262382507 -14.712733269 0.19271296263
          0 0 0 3.4679074287 -14.743453979 -0.3667857945
          -0.12788079679 -6.0633115768 0.045994959772 -0.088349528611 -3.1280808449 -0.038970071822
          -0.061365038157 -1.9313713312 0.039239723235 9.4725008011 -17.134651184 -0.22967581451
          11.623432159 -17.403806686 -1.7051846953e-05 1.7928638458 -12.892412186 0.17869903147
          -0.12578946352 -6.1081118584 0.02480584383 3.4581785202 -14.754555702 -0.16364958882
          -0.3147302866 -7.8386282921 0.019148461521 -0.036022432148 -0.9222009778 9.5743746442e-07
          -0.35476914048 -11.393843651 -0.39315238595 9.4716053009 -17.153446198 -1.6341116861e-05
          0.44682714343 -11.122509003 0.39979487658 -0.058048110455 -1.940905571 2.1246194137e-06
          -0.12575913966 -6.1227450371 6.5481822276e-06 -0.32994386554 -11.397236824 -0.16551421583
          3.4319438934 -14.77236557 -8.7389935288e-06 -0.62320023775 -9.6093292236 0.44042205811
          13.77353096 -17.671768188 0.3015191853 7.335454464 -16.865716934 -0.38927459717
          -0.47199451923 -9.6018686295 0.011543919332 0 0 0
          -0.069160394371 -3.0680088997 0.089051872492 0.71234416962 -12.932790756 -0.32892510295
          -0.063493639231 -3.1036696434 0.045747291297 7.3265504837 -16.916742325 -0.19953802228
          11.622797966 -17.386283875 0.26548761129 -0.45737582445 -9.7017068863 -0.095377124846
          0.71814870834 -12.95035553 -0.16817653179 -0.0371728912 -0.91633158922 -0.022510791197
          -0.10894145817 -4.4952569008 -0.043193757534 4.793419838 -14.710720062 0.35318648815
          -0.32119193673 -11.367693901 -1.2826507145e-06 -0.31295883656 -7.7730588913 0.040497746319
          1.8558231592 -12.923939705 0.3827868402 7.3091311455 -16.938131332 -1.5305380657e-05
          9.4724960327 -17.134653091 0.22964319587 -0.36734586954 -9.7184972763 7.8544580902e-06
          -0.061364807189 -1.9313710928 -0.039235513657 -0.063406132162 -3.1124594212 3.3128299037e-06
          -0.12579192221 -6.1081132889 -0.024793284014 3.4581730366 -14.754558563 0.16363154352
          0.70667088032 -12.949501038 -3.1360434605e-06 2.2668981552 -14.763561249 -0.34684598446
          -0.15764828026 -7.802895546 0.046983841807 2.2452569008 -14.753993034 -0.16839317977
          -0.14836972952 -7.8632135391 0.025462249294 13.772686005 -17.618026733 0.60459250212
          0 0 0 -0.32995575666 -11.397238731 0.1655151695
          -0.058962166309 -4.428999424 0.09038015455 5.2152252197 -16.699083328 -0.33023062348
          -0.056433819234 -4.4631009102 0.049254447222 11.621936798 -17.332632065 0.53148031235
          -0.054696682841 -0.89637172222 -0.053807735443 5.2042503357 -16.735118866 -0.17828683555
          7.3265428543 -16.916742325 0.1995074749 -0.45739248395 -9.7017087936 0.095392346382
          -0.06349363178 -3.1036696434 -0.045740801841 0.71813350916 -12.950351715 0.16816957295
          2.2137875557 -14.739673615 -7.3476908256e-06 -0.13594870269 -7.8860192299 7.0325449997e-06
          9.4731092453 -17.080835342 0.45953944325 -0.073814198375 -1.9011474848 -0.076079934835
          3.4678940773 -14.743458748 0.36676764488 -0.052262790501 -4.4722084999 4.3238414946e-06
          -0.12788395584 -6.0633125305 -0.045983798802 5.1369829178 -16.749034882 -1.4485605789e-05
          14.782132149 -19.827323914 -0.60547894239 0 0 0
          -0.3547873199 -11.393846512 0.39315289259 2.2452492714 -14.753995895 0.16837775707
          0 0 0 12.51200676 -19.541675568 -0.53166031837
          -1.0108008385 -11.628410339 -0.27608400583 -0.1483746767 -7.8632159233 -0.025448892266
          -0.073144704103 -0.84061551094 0.080553993583 -0.059886664152 -13.18464756 -0.38262629509
          14.782509804 -19.882005692 -0.30226704478 7.335439682 -16.865718842 0.38924318552
          12.512133598 -19.59618187 -0.26591289043 -0.044196952134 -0.86084699631 0.034714981914
          -0.47201582789 -9.6018733978 -0.01153947413 -0.9024348855 -11.670121193 -0.15177358687
          -0.069159343839 -3.068007946 -0.089045748115 3.9822456837 -16.710245132 -0.32766464353
          -0.056434374303 -4.463101387 -0.049246005714 0.71232122183 -12.932787895 0.32891836762
          -0.035508714616 -5.9791498184 0.093862876296 5.2042403221 -16.735120773 0.17825859785
          -0.047313034534 -13.189232826 -0.12154723704 -0.022499021143 -6.0155916214 0.051358882338
          3.9071753025 -16.648794174 -0.14884135127 10.245698929 -19.287782669 -0.45911109447
          14.782798767 -19.899908066 -2.0183935703e-05 -0.078001528978 -1.7853227854 0.122860156
          0 0 0 10.24362278 -19.34290123 -0.23019692302
          -0.056888073683 -1.8189913034 0.062636114657 12.512213707 -19.614320755 -1.9596227503e-05
          1.1010020971 -14.803937912 -0.35476467013 -0.40040633082 -11.495245934 -2.0318144323e-07
          -0.068135097623 -13.189949036 -5.8213449847e-06 -0.20863889158 -9.7366304398 0.047071237117
          -0.042126178741 -0.86654150486 5.9720747458e-07 1.033816576 -14.760974884 -0.15036797523
          3.7045798302 -16.509843826 -1.1266550246e-05 -0.18319128454 -9.8032922745 0.026211149991
          -0.027637960389 -6.0299115181 5.0697090046e-06 2.2668838501 -14.763566971 0.34682998061
          10.241656303 -19.361869812 -1.9528391931e-05 -0.15765537322 -7.802898407 -0.046972800046
          -0.051809586585 -1.8283594847 1.3863609638e-06 7.9792733192 -19.062704086 -0.38510817289
          14.782505035 -19.882007599 0.30222675204 0.92303949594 -14.676121712 -6.7755313466e-06
          -0.045009762049 -2.9168064594 0.14263063669 -0.058962196112 -4.4289984703 -0.09037232399
          -0.17273819447 -9.7803153992 6.3486886575e-06 5.2152061462 -16.699087143 0.33020076156
          0 0 0 7.9745106697 -19.121809006 -0.19305221736
          -0.042153835297 -2.9523119926 0.077084377408 12.51212883 -19.596183777 0.26587381959
          -0.90247154236 -11.670125961 0.15178026259 -0.047324862331 -13.189229012 0.12154105306
          -0.044196799397 -0.86084681749 -0.034713804722 3.9071669579 -16.648797989 0.14881776273
          -0.022500483319 -6.0155925751 -0.051349058747 10.243618965 -19.342903137 0.23015831411
          7.9639573097 -19.144607544 -1.9858871383e-05 2.689551115 -16.659889221 -0.34602120519
          0.017811492085 -7.752532959 0.13496187329 -0.04538327083 -2.9621896744 2.2333053948e-06
          -0.056887853891 -1.8189911842 -0.062633313239 0.033795714378 -7.7925701141 0.068577229977
          1.0338071585 -14.760976791 0.15035431087 2.6617746353 -16.616704941 -0.16404546797