<?xml version="1.0"?>
<VTKFile type="UnstructuredGrid" version="0.1" byte_order="LittleEndian" header_type="UInt32" compressor="vtkZLibDataCompressor">
  <UnstructuredGrid>
    <Piece NumberOfPoints="6405" NumberOfCells="4800">
      <PointData>
        <DataArray type="Float32" Name="DISPLACEMENT" NumberOfComponents="3" ComponentName0="X-DISPLACEMENT" ComponentName1="Y-DISPLACEMENT" ComponentName2="Z-DISPLACEMENT" format="ascii" RangeMin="0" RangeMax="252.28271366">
          0 0 0 0 0 0
          1.9757897854 -1.2137136459 -0.91455745697 0 0 0
          1.2807607651 -0.71949499846 -0.71247172356 0 0 0
          1.8033784628 -1.3364084959 -0.36379691958 1.1140547991 -0.82049763203 -0.2906293869
          0 0 0 3.542402029 -2.2105798721 -0.93835991621
          0 0 0 3.4912157059 -2.3553869724 -0.48486697674
          2.5716776848 -1.8130897284 -0.78615432978 0 0 0
          0 0 0 1.809431076 -1.3785436153 -2.0977806798e-06
          0.94185358286 -0.48899197578 -0.55318540335 1.1095952988 -0.84106343985 -9.4495584335e-07
          2.516813755 -1.9285069704 -0.40144914389 0.80919295549 -0.58263713121 -0.224208951
          3.4517858028 -2.3963708878 -4.3394657041e-06 1.8868396282 -1.4803608656 -0.61999744177
          0 0 0 2.4825110435 -1.9668792486 -2.1870123419e-06
          1.8302050829 -1.5871019363 -0.31800955534 0 0 0
          4.9689712524 -3.4803020954 -0.882550776 0 0 0
          0.8026214838 -0.60025966167 2.2564668711e-07 0 0 0
          0 0 0 1.8033790588 -1.3364106417 0.36379283667
          3.7871210575 -3.0970201492 -0.75157809258 4.9833669662 -3.5857467651 -0.45038598776
          0.67819225788 -0.32197162509 -0.37958672643 1.1140544415 -0.8204998374 0.29062747955
          3.7993187904 -3.1965358257 -0.38311773539 0.59498798847 -0.42363914847 -0.1578258872
          1.8002872467 -1.6154843569 9.5907935815e-08 3.4912159443 -2.355391264 0.48485821486
          0 0 0 0 0 0
          1.3118704557 -1.2635757923 -0.44024646282 2.8441431522 -2.794084549 -0.62230879068
          4.9709815979 -3.6243715286 -6.9127054303e-06 2.5168128014 -1.9285115004 0.40144467354
          2.8379247189 -2.8887207508 -0.31555140018 0.80919253826 -0.58263969421 0.22420932353
          3.790615797 -3.2300627232 -3.7545212308e-06 1.2547007799 -1.3672282696 -0.2256090194
          0.60329586267 -0.43776530027 1.8128199599e-06 0 0 0
          6.2996883392 -4.9157714844 -0.79408681393 0 0 0
          4.9396572113 -4.5636968613 -0.69452232122 1.83020401 -1.5871068239 0.31800967455
          6.3345456123 -4.9939546585 -0.40210875869 1.9757889509 -1.2137175798 0.91455340385
          0 0 0 0 0 0
          1.234205842 -1.3928457499 2.6281484224e-06 2.8289146423 -2.9178514481 -4.9278287406e-07
          0.25160831213 -0.22159276903 -0.17349490523 4.9711432457 -4.6414103508 -0.35029518604
          1.2807588577 -0.71949958801 0.71246957779 1.9994301796 -2.5975584984 -0.4886610508
          0 0 0 4.9833664894 -3.585752964 0.45037204027
          0.20444351435 -0.3483672142 -0.087284244597 1.9719414711 -2.6806976795 -0.24921052158
          3.7993171215 -3.1965425014 0.38311010599 0.59498739243 -0.42364189029 0.15782928467
          3.7813434601 -4.2804980278 -0.59535974264 0.50852560997 -1.1327674389 -0.27538463473
          6.3356313705 -5.0215544701 -9.7224765341e-06 3.5423998833 -2.2105884552 0.9383508563
          0 0 0 0 0 0
          3.795789957 -4.356760025 -0.30051797628 2.5716745853 -1.8130986691 0.78614962101
          4.9759874344 -4.6685385704 -5.6555018091e-06 0.44876980782 -1.2304495573 -0.14497597516
          0.94185292721 -0.4889972508 0.55318558216 0.22773650289 -0.38140898943 3.8900934669e-06
          1.9601441622 -2.7061493397 3.0344485822e-06 2.8379230499 -2.8887279034 0.3155503571
          1.254699707 -1.3672333956 0.22561423481 3.7965388298 -4.3829965591 -1.4995121091e-06
          1.8868378401 -1.4803705215 0.61999732256 0.43918278813 -1.2577501535 5.2991358643e-06
          2.7080979347 -4.080499649 -0.50186944008 6.3345441818 -4.9939632416 0.40208917856
          4.9689674377 -3.4803147316 0.88253647089 0 0 0
          7.5261011124 -6.4818248749 -0.72054666281 0 0 0
          0 0 0 1.0253180265 -2.4515736103 -0.40766361356
          2.7102835178 -4.1539244652 -0.25223487616 7.560315609 -6.5409655571 -0.36220625043
          6.0242700577 -6.1538891792 -0.64329558611 4.9711408615 -4.6414189339 0.35028374195
          0.095034345984 -0.38333785534 -0.20643605292 0 0 0
          3.7871162891 -3.0970335007 0.75157022476 0.67819267511 -0.32197734714 0.37958988547
          0.98444348574 -2.5219297409 -0.19134932756 0.20444169641 -0.34837034345 0.087291449308
          0.023337347433 -0.42673623562 -0.069877631962 1.9719399214 -2.6807053089 0.24921655655
          6.0556855202 -6.2154541016 -0.32224026322 3.7957875729 -4.3567690849 0.30051490664
          2.7103533745 -4.1798605919 2.9194811759e-06 7.5665507317 -6.5620303154 -1.2788338609e-05
          0.29408279061 -1.3591922522 -0.33719903231 0.44876727462 -1.2304548025 0.14498661458
          0 0 0 4.6885647774 -5.8833451271 -0.56393420696
          1.3118698597 -1.2635861635 0.44025146961 2.8441398144 -2.7940986156 0.62230753899
          0.96660017967 -2.5490992069 6.9451648415e-06 6.0638041496 -6.2369394302 -7.902287507e-06
          0.049792781472 -0.49268320203 7.8017737906e-06 0.28492885828 -1.3810793161 -0.13420277834
          4.7088165283 -5.9459838867 -0.28307643533 6.299683094 -4.9157881737 0.79406684637
          0 0 0 1.7383100986 -3.9365231991 -0.41248348355
          4.9396510124 -4.5637140274 0.69451057911 0.29075860977 -1.4197131395 1.0949524949e-05
          1.7023633718 -4.0057506561 -0.20219764113 4.7142138481 -5.967736721 -2.9138711852e-06
          0.25160774589 -0.22159904242 0.17350135744 2.7102813721 -4.1539340019 0.25224071741
          3.4633657932 -5.6668367386 -0.48282590508 7.560312748 -6.5409755707 0.36218053102
          0.50636416674 -2.4650616646 -0.30164411664 1.9994283915 -2.5975735188 0.48866695166
          0 0 0 0.98444062471 -2.5219373703 0.19136330485
          3.4695034027 -5.7336134911 -0.24342241883 0.023333594203 -0.42673936486 0.069892205298
          0.53022938967 -2.5661728382 -0.13555732369 6.0556817055 -6.2154641151 0.32222434878
          3.7813384533 -4.2805161476 0.59535646439 0.5085234642 -1.1327781677 0.27539509535
          8.6622991562 -8.1416130066 -0.66707420349 0 0 0
          1.6585037708 -4.0159711838 7.9340934462e-06 7.0441002846 -7.835000515 -0.60292881727
          8.6894283295 -8.190328598 -0.33424335718 0 0 0
          -0.67379385233 -0.41791379452 -0.12737508118 7.0695667267 -7.886490345 -0.30095812678
          3.4673914909 -5.7572951317 2.2982105747e-06 -0.71833181381 -0.42119991779 -0.15824200213
          0.28492504358 -1.3810844421 0.13422437012 0.52679622173 -2.6164870262 1.280732431e-05
          4.7088131905 -5.945994854 0.28307050467 5.560230732 -7.5831694603 -0.53549265862
          -0.72409439087 -1.3089097738 -0.1456335634 8.6962175369 -8.2074842453 -1.619663999e-05
          0 0 0 -0.77181488276 -1.3537923098 -0.20342825353
          5.5785346031 -7.6359581947 -0.26695799828 7.0771040916 -7.9042601585 -1.0541776646e-05
          -0.0042793946341 -0.68687319756 9.4840952443e-06 2.7080943584 -4.0805191994 0.50187522173
          2.2996401787 -5.4877142906 -0.38606795669 7.5260939598 -6.4818444252 0.72052055597
          0 0 0 0.75769650936 -3.8820471764 -0.23163317144
          1.7023608685 -4.0057606697 0.20221360028 1.0253149271 -2.4515893459 0.40767768025
          6.0242619514 -6.1539096832 0.64327931404 0.095034509897 -0.38334688544 0.20645016432
          0.74366909266 -3.9610691071 -0.14924915135 2.3002912998 -5.5658745766 -0.20272144675
          3.4695003033 -5.7336249352 0.24342697859 0.53022640944 -2.5661811829 0.13558290899
          5.5833735466 -7.6539940834 -4.7322841965e-06 -0.18140856922 -1.5314965248 1.5775416614e-05
          4.1845211983 -7.4028429985 -0.46715581417 -0.10816819221 -2.6727399826 -0.2444217205
          0.29408070445 -1.3592064381 0.33722111583 8.6894245148 -8.1903400421 0.33421084285
          4.6885581017 -5.8833661079 0.56392800808 0 0 0
          2.3048796654 -5.5922150612 7.9228775576e-06 0.72384566069 -3.9493312836 1.3885573935e-05
          4.1937613487 -7.4527444839 -0.23173423111 7.0695619583 -7.8865017891 0.30093690753
          -0.14247135818 -2.7320086956 -0.098285116255 -0.718339324 -0.42120188475 0.15826570988
          1.7383067608 -3.9365441799 0.41249975562 4.1954488754 -7.4678969383 1.1859298183e-06
          5.5785303116 -7.6359701157 0.26694840193 -0.77182137966 -1.3537980318 0.20345680416
          -0.12436647713 -2.7681615353 1.9646298824e-05 9.7311706543 -9.8762302399 -0.63219547272
          0 0 0 9.7505111694 -9.9209356308 -0.31619805098
          3.4633603096 -5.6668596268 0.48283034563 8.0091276169 -9.5852622986 -0.57287371159
          0.5063611269 -2.4650800228 0.30167025328 0.94533699751 -5.3544492722 -0.2657391727
          -0.069693446159 -0.72186601162 -0.051072340459 0.74366617203 -3.9610800743 0.14927685261
          2.3002886772 -5.5658864975 0.20273731649 0 0 0
          8.0276279449 -9.632021904 -0.2851793766 0.95517891645 -5.443874836 -0.14992873371
          -0.058644142002 -0.7920550704 -0.012479273602 2.8765695095 -7.2996397018 -0.39755600691
          0.087460942566 -4.0910897255 -0.31143638492 8.6622896194 -8.1416349411 0.66704130173
          0 0 0 7.044090271 -7.8350234032 0.60290718079
          9.7565488815 -9.9364051819 -2.0112202037e-05 0.040138166398 -4.0912394524 -0.12747371197
          2.8729081154 -7.335214138 -0.19658981264 -0.67379570007 -0.41792553663 0.12739941478
          6.3813409805 -9.3541908264 -0.50936931372 -0.22986745834 -1.508356452 -0.14679129422
          0 0 0 4.1937570572 -7.4527573586 0.23173651099
          -0.14247404039 -2.7320177555 0.098324768245 8.0331373215 -9.6473770142 -1.3665177903e-05
          0.99764853716 -5.4804735184 1.389829049e-05 6.3961143494 -9.4000339508 -0.25196743011
          -0.20561318099 -1.605173707 -0.024190977216 -0.12784996629 -0.81408268213 8.0993931988e-06
          5.5602216721 -7.5831933022 0.53548270464 -0.72409540415 -1.3089222908 0.14566199481
          2.8763701916 -7.3453216553 7.2183725024e-06 0.070728719234 -4.1224365234 2.0569354092e-05
          2.2996361256 -5.4877381325 0.38608384132 6.3984656334 -9.4136791229 -6.9443585744e-06
          -0.2261312753 -1.7318220139 1.4638175344e-05 0.75769281387 -3.8820693493 0.2316609472
          9.7505064011 -9.9209480286 0.31615772843 4.851067543 -9.2103614807 -0.44684883952
          0 0 0 -0.39864784479 -2.7463212013 -0.098233938217
          4.8607559204 -9.2496137619 -0.21880804002 8.0276222229 -9.6320343018 0.28515189886
          -0.058644134551 -0.79205864668 0.012494505383 0.95517581701 -5.4438872337 0.14995664358
          -0.38760119677 -2.829385519 -0.096257999539 4.1845135689 -7.4028682709 0.46715784073
          1.4599462748 -7.2036867142 -0.38376906514 2.8729050159 -7.3352279663 0.19660432637
          -0.1081706658 -2.6727609634 0.24446204305 0.040135901421 -4.0912513733 0.12751506269
          0.37043344975 -5.6279840469 -0.41401025653 1.4315623045 -7.2210683823 -0.16834147274
          4.8591461182 -9.261598587 -2.4838965373e-07 6.3961081505 -9.4000473022 0.25195333362
          -0.20561350882 -1.6051772833 0.024220796302 0.34523993731 -5.6024713516 -0.14788734913
          -0.28720808029 -2.8833456039 2.1271362129e-05 10.759776115 -11.680788994 -0.61307042837
          0 0 0 -0.030326735228 -0.84870904684 0.00010541953088
          1.4220508337 -7.2271356583 1.3630248759e-05 3.4122955799 -9.1537513733 -0.40472200513
          8.9349145889 -11.397078514 -0.55144506693 9.7311601639 -9.8762559891 0.63215482235
          0 0 0 0 0 0
          0.3432635963 -5.6386475563 2.0687548385e-05 -0.62733256817 -4.321870327 -0.35102519393
          10.771945 -11.726327896 -0.30615326762 3.4155349731 -9.1792535782 -0.19672863185
          8.9474401474 -11.443821907 -0.27405309677 8.0091152191 -9.5852880478 0.57284581661
          -0.049075763673 -0.88032639027 0.0022141817026 0.94533270597 -5.3544740677 0.26576730609
          -0.069687686861 -0.72186905146 0.051086761057 -0.64703720808 -4.2688307762 -0.20477770269
          4.8607506752 -9.2496271133 0.21880733967 -0.38760384917 -2.8293921947 0.096299260855
          7.1635780334 -11.171787262 -0.48487859964 2.8765637875 -7.2996668816 0.39757049084
          0.087458945811 -4.091114521 0.31147816777 0 0 0
          -0.12530496716 -1.797557354 -0.029367957264 10.776678085 -11.741599083 -2.475783549e-05
          -0.046052020043 -0.89823895693 6.3276265792e-06 3.4133458138 -9.1899690628 6.2330423134e-06
          7.1731071472 -11.213611603 -0.23820243776 6.3813295364 -9.3542175293 0.50935465097
          8.9515657425 -11.458357811 -1.7377573386e-05 -0.22986195982 -1.5083622932 0.14681904018
          -0.18486171961 -4.24320364 2.6152398277e-05 -0.14496518672 -1.8542667627 -0.013122622855
          1.4315605164 -7.2210826874 0.16836905479 0.34523794055 -5.6024842262 0.14792941511
          0.65880334377 -7.3202142715 -0.38027483225 7.1723399162 -11.221865654 -9.6011972346e-06
          -0.14070256054 -1.8742343187 1.3051086171e-05 0.68115520477 -7.3391451836 -0.17590694129
          5.4752345085 -11.037910461 -0.41530004144 0 0 0
          -0.25283288956 -2.9922297001 -0.077999822795 10.771940231 -11.726342201 0.30610367656
          -0.049075182527 -0.88032764196 -0.0022021317855 3.4155302048 -9.1792678833 0.19674102962
          5.4697360992 -11.068216324 -0.19864369929 4.8510570526 -9.2103891373 0.44684746861
          8.9474344254 -11.443836212 0.27401822805 2.1204459667 -9.1178407669 -0.40004020929
          -0.47650134563 -5.7647705078 -0.39130520821 -0.39864382148 -2.746329546 0.098270989954
          -0.25528290868 -3.0489332676 -0.03574739024 -0.64704298973 -4.2688412666 0.20483565331
          2.0908606052 -9.1287593842 -0.18777319789 -0.43962076306 -5.7695713043 -0.19837109745
          0.6741425395 -7.3470625877 2.0791929273e-05 1.4599429369 -7.2037153244 0.38379755616
          7.1730999947 -11.213624954 0.23818291724 0.37043040991 -5.6280107498 0.4140535295
          5.4514832497 -11.06989193 -1.8175634295e-06 -0.14496400952 -1.8542689085 0.013148203492
          -0.23705369234 -3.0508773327 1.9382106984e-05 2.0521621704 -9.1256666183 1.2940129636e-05
          -0.32036754489 -5.8558773994 2.7600239264e-05 -0.29214274883 -4.3527741432 -0.095461033285
          3.934265852 -10.990106583 -0.37103003263 10.759764671 -11.68081665 0.61302059889
          0 0 0 0.68115377426 -7.3391609192 0.17594897747
          -0.030320288613 -0.84870958328 -9.3168382591e-05 -0.27975985408 -4.4294557571 -0.068407595158
          3.4122869968 -9.1537790298 0.40473413467 8.9349012375 -11.397107124 0.55140972137
          3.9176194668 -11.014649391 -0.1722792387 11.771573067 -13.5657444 -0.60567772388
          0 0 0 -0.62733757496 -4.321896553 0.35108184814
          11.778139114 -13.614561081 -0.30207821727 -0.041637893766 -0.90803146362 0.018698554486
          9.8399248123 -13.282361031 -0.53882062435 5.4697284698 -11.068230629 0.19863933325
          0 0 0 -0.25528225303 -3.0489370823 0.035785581917
          9.8468198776 -13.331814766 -0.26795503497 -0.041028555483 -0.92938053608 0.0098645258695
          2.0908594131 -9.1287755966 0.1877990216 -0.4396250844 -5.7695817947 0.19842836261
          7.1635642052 -11.171814919 0.48485821486 -0.32339343429 -4.440905571 2.4338018193e-05
          3.8881986141 -11.026610374 5.2481959756e-06 -0.12529681623 -1.7975581884 0.029392251745
          0.93021935225 -9.0952672958 -0.30773937702 -0.098503552377 -1.9228605032 0.0093705095351
          7.9296789169 -13.048157692 -0.46711581945 -0.11770322919 -7.5891766548 -0.38395598531
          11.781599045 -13.630541801 -3.0317925848e-05 0 0 0
          0.9325196147 -9.1330909729 -0.17042906582 9.8494434357 -13.347028732 -2.1755800844e-05
          -0.042800884694 -0.9385201335 4.9425366342e-06 7.9371271133 -13.0922575 -0.22970575094
          -0.10375998169 -1.95599401 0.0081570046023 -0.121604532 -7.5919828415 -0.16839045286
          0.65879940987 -7.3202443123 0.38031700253 0.93925100565 -9.1398897171 1.970453377e-05
          -0.32603797317 -5.8398756981 -0.13326695561 -0.27975907922 -4.4294624329 0.068455263972
          2.608972311 -10.980174065 -0.35677418113 7.9392733574 -13.101398468 -1.2791097106e-05
          5.4752206802 -11.037939072 0.41529422998 3.9176127911 -11.014663696 0.17228901386
          -0.092525064945 -7.5982241631 2.5722983992e-05 -0.10326598585 -1.9679515362 1.0651015145e-05
          -0.25282716751 -2.9922332764 0.078035831451 11.778134346 -13.614577293 0.30201756954
          6.081548214 -12.893262863 -0.39662736654 -0.32675635815 -5.9361982346 -0.069217428565
          -0.15254156291 -3.0946202278 0.00047779857414 2.6006433964 -10.993409157 -0.17805722356
          2.120442152 -9.1178712845 0.40006560087 -0.47650763392 -5.7647953033 0.39136317372
          0 0 0 -0.16227699816 -3.1400089264 -0.00054606003687
          9.8468132019 -13.331830978 0.26791140437 -0.041027642787 -0.92938059568 -0.0098549230024
          6.0443277359 -12.915072441 -0.1900383234 -0.3203150928 -5.9834418297 2.5597444619e-05
          2.5863695145 -11.00206852 1.135972343e-05 0.93251806498 -9.1331071854 0.1704685837
          5.9966626167 -12.90558815 -3.8661278268e-06 -0.16795684397 -3.1568813324 1.6056281311e-05
          7.9371190071 -13.092271805 0.22967974842 -0.10375804454 -1.9559943676 -0.0081358635798
          -0.12160177529 -7.5919995308 0.1684448868 -0.29213833809 -4.3527808189 0.095504917204
          3.9342544079 -10.990135193 0.3710385263 4.3999657631 -12.860372543 -0.34913104773
          11.771560669 -13.565776825 0.60561698675 0 0 0
          -0.20241628587 -4.4421319962 -0.011145235039 -0.041631735861 -0.90803027153 -0.018688296899
          9.8399095535 -13.282393456 0.53877657652 -0.32675462961 -5.936205864 0.069269061089
          2.6006393433 -10.993424416 0.17807981372 4.3161253929 -12.84805584 -0.17275695503
          0.15401053429 -9.3615579605 -0.41180363297 -0.21503289044 -4.5027623177 -0.0027764991391
          -0.16227473319 -3.1400098801 0.0005776550388 6.0443153381 -12.915085793 0.19002965093
          0.14816132188 -9.3350467682 -0.16015188396 1.2779597044 -10.94773674 -0.36534938216
          -0.38888755441 -7.5572042465 -0.087023325264 12.781112671 -15.54989624 -0.60487538576
          0 0 0 10.736437798 -15.264339447 -0.53377050161
          0.93021470308 -9.0952978134 0.30777916312 -0.098495364189 -1.9228588343 -0.009349999018
          7.9296631813 -13.04818821 0.46708884835 -0.40812394023 -7.6569080353 -0.10192942619
          1.2524645329 -10.939897537 -0.16752824187 -0.11770547926 -7.5892076492 0.38401263952
          12.783722878 -15.601898193 -0.3015884161 0 0 0
          -0.21258735657 -4.5264191628 2.0030744054e-05 4.2014408112 -12.817450523 3.8417065298e-06
          -0.052988898009 -0.92104780674 0.040378812701 10.739674568 -15.316699028 -0.26608753204
          -0.042875844985 -0.93944507837 0.017359020188 0.1670909822 -9.3632364273 2.2224407076e-05
          8.6972827911 -15.017777443 -0.46111145616 -0.37423267961 -7.6736078262 2.4726867196e-05
          1.2303901911 -10.930288315 1.7100084733e-05 12.78567791 -15.618757248 -3.6768942664e-05
          0 0 0 -0.090679071844 -1.9428551197 0.04905000329
          8.6995239258 -15.06882 -0.22908081114 10.741361618 -15.333400726 -2.6731653634e-05
          -0.32603415847 -5.8398838043 0.13331530988 2.6089639664 -10.980202675 0.35679611564
          -0.042544078082 -0.94547337294 3.7482391235e-06 -0.086693234742 -1.9725294113 0.025768468156
          6.0815296173 -12.893292427 0.39661622047 -0.1525336206 -3.0946185589 -0.0004478484334
          -0.26176178455 -5.9774827957 -0.013233166188 3.02252841 -12.893810272 -0.36755216122
          -0.21503058076 -4.502764225 0.0028157769702 4.3161144257 -12.848070145 0.17276388407
          -0.26925683022 -6.0517029762 -0.0070264521055 3.0105371475 -12.879956245 -0.17882338166
          0.14816819131 -9.3350658417 0.16019928455 8.7007074356 -15.085033417 -1.654469088e-05
          -0.085596382618 -1.9830209017 8.3029981397e-06 6.685505867 -14.823410034 -0.39343759418
          -0.40811899304 -7.6569170952 0.10197835416 1.2524651289 -10.93991375 0.16756261885
          12.783719063 -15.601917267 0.30151489377 0 0 0
          -0.11981387436 -3.113173008 0.049727134407 6.6648292542 -14.861237526 -0.19890038669
          10.739667892 -15.316717148 0.26603403687 -0.12084562331 -3.1524879932 0.027100404724
          -0.27138143778 -6.0772137642 2.1923462555e-05 2.9968748093 -12.866034508 9.8955761132e-06
          -0.042874824256 -0.93944448233 -0.017351638526 8.6995162964 -15.06883812 0.22904744744
          6.6336736679 -14.869641304 -6.967776244e-06 -0.12049262971 -3.1665472984 1.2680658983e-05
          4.3999495506 -12.860402107 0.34913507104 0.4315534234 -11.132151604 -0.39064732194
          -0.086691103876 -1.9725284576 -0.025751877576 -0.20240986347 -4.4421310425 0.011182304472
          -0.62714201212 -9.6244525909 -0.42122265697 0.45683977008 -11.131829262 -0.17429921031
          0.1540106535 -9.3615875244 0.41185393929 -0.59271711111 -9.6084928513 -0.19217534363
          -0.26925420761 -6.0517058372 0.0070694778115 3.0105326176 -12.879969597 0.1788431108
          1.2779573202 -10.947766304 0.36538463831 -0.38887965679 -7.5572156906 0.087072752416
          -0.14158883691 -4.4675559998 0.047479253262 4.7510991096 -14.71441555 -0.34973102808
          12.781101227 -15.549935341 0.60480195284 0 0 0
          10.736423492 -15.264377594 0.53371679783 -0.1438908726 -4.513502121 0.025868017226
          0.44865381718 -11.125409126 1.8753222321e-05 -0.36576199532 -7.745513916 -0.043579995632
          1.8451558352 -12.926971436 -0.37887382507 4.6973042488 -14.723499298 -0.19339486957
          -0.052983541042 -0.92104560137 -0.040370576084 -0.53851020336 -9.5873727798 1.4286098121e-05
          6.6648135185 -14.861252785 0.19888617098 -0.12084305286 -3.1524868011 -0.027075352147
          1.7952796221 -12.902775764 -0.17716705799 -0.36144658923 -7.8162741661 -0.016996642575
          8.6972675323 -15.017813683 0.46107745171 -0.14592380822 -4.531191349 1.6023943317e-05
          4.5803847313 -14.708590508 1.7726681563e-06 -0.090671524405 -1.9428514242 -0.049033567309
          1.7276450396 -12.867935181 1.4407338313e-05 13.791955948 -17.649147034 -0.60604757071
          0 0 0 -0.36200040579 -7.8410377502 2.1454339731e-05
          13.792917252 -17.703130722 -0.30226147175 0 0 0
          0.4568477869 -11.131847382 0.17433868349 11.630969048 -17.362815857 -0.53256011009
          -0.26175680757 -5.9774823189 0.013274025172 3.0225207806 -12.893836975 0.36757129431
          -0.068863965571 -0.89550614357 0.064765706658 -0.5926913023 -9.6085205078 0.19222617149
          11.631481171 -17.416778564 -0.26617905498 -0.048740781844 -0.91449379921 0.027034457773
          6.6854810715 -14.823442459 0.39342230558 13.793901443 -17.720666885 -4.3793137593e-05
          -0.143888399 -4.5135016441 -0.02583643049 9.4701652527 -17.106729507 -0.46022889018
          -0.09842325002 -1.8923556805 0.08851698041 4.6972856522 -14.723511696 0.1933991313
          0 0 0 3.4498705864 -14.749990463 -0.35986933112
          -0.1642280668 -6.0317201614 0.044293776155 -0.11980632693 -3.113168478 -0.049702942371
          -0.084977425635 -1.922503829 0.04552552104 9.4698991776 -17.162376404 -0.23005698621
          11.631718636 -17.434389114 -3.1936880987e-05 1.7952829599 -12.902788162 0.17719599605
          -0.16358497739 -6.0806312561 0.024054132402 3.4480345249 -14.762905121 -0.15879367292
          -0.36144295335 -7.8162784576 0.017039503902 -0.047554578632 -0.92028611898 2.7218795822e-06
          -0.36025190353 -11.39953804 -0.3817794621 9.4692077637 -17.182317734 -2.0313294954e-05
          0.43155753613 -11.132177353 0.39068597555 -0.080805703998 -1.9322705269 6.2178778535e-06
          -0.16366483271 -6.098069191 1.7935422875e-05 -0.33737185597 -11.409514427 -0.15726059675
          3.4315814972 -14.783291817 1.1169117897e-05 -0.62713199854 -9.6244812012 0.42127600312
          13.792914391 -17.70315361 0.30217397213 7.3109827042 -16.884988785 -0.38597178459
          -0.5245975256 -9.6083192825 0.027869839221 0 0 0
          -0.10115475953 -3.0458185673 0.099691972136 0.69395852089 -12.921861649 -0.32372668386
          -0.096535824239 -3.0831558704 0.051517840475 7.3086481094 -16.940345764 -0.19934245944
          11.631475449 -17.41680336 0.2661152184 -0.50272083282 -9.7033548355 -0.094369247556
          0.69621384144 -12.944467545 -0.15918324888 -0.048739820719 -0.91449284554 -0.027029020712
          -0.14158251882 -4.4675507545 -0.047449003905 4.751074791 -14.71444416 0.34973227978
          -0.31703135371 -11.399374962 1.3484659576e-05 -0.36575815082 -7.7455172539 0.043621655554
          1.8451567888 -12.926991463 0.3789023757 7.2993884087 -16.964162827 -9.623364349e-06
          9.4698925018 -17.162399292 0.23001644015 -0.40968686342 -9.7125415802 2.0032401153e-05
          -0.084975518286 -1.9225021601 -0.045513018966 -0.095431685448 -3.0943489075 9.661716831e-06
          -0.16358283162 -6.0806307793 -0.024018701166 3.4480314255 -14.76291275 0.15881472826
          0.68678998947 -12.95404911 1.5676021576e-05 2.2603466511 -14.771517754 -0.34153461456
          -0.19460390508 -7.7849345207 0.044868499041 2.239282608 -14.757937431 -0.16279354692
          -0.18422973156 -7.8450183868 0.026634635404 13.791944504 -17.649194717 0.6059602499
          0 0 0 -0.33734631538 -11.409537315 0.15729522705
          -0.093327879906 -4.3961839676 0.099038742483 5.170964241 -16.716024399 -0.31898117065
          -0.092193678021 -4.4364466667 0.051709439605 11.630955696 -17.362863541 0.53249633312
          -0.068859547377 -0.89550364017 -0.064759396017 5.1678423882 -16.754257202 -0.17644356191
          7.3086371422 -16.940366745 0.19932320714 -0.50271439552 -9.7033662796 0.09440740943
          -0.096533663571 -3.0831537247 -0.051498658955 0.696220994 -12.944476128 0.15921497345
          2.2113494873 -14.740464211 1.4379705135e-05 -0.1743234843 -7.8673820496 1.8437383915e-05
          9.4701519012 -17.106775284 0.46018832922 -0.098417006433 -1.8923513889 -0.088504344225
          3.4498672485 -14.750008583 0.35988849401 -0.08962033689 -4.4483380318 1.2458412129e-05
          -0.16422374547 -6.0317163467 -0.044259853661 5.1181545258 -16.765790939 1.3406905452e-07
          14.802775383 -19.871347427 -0.60607481003 0 0 0
          -0.36023500562 -11.399559975 0.3818167448 2.2392861843 -14.757943153 0.16282224655
          0 0 0 12.522331238 -19.58597374 -0.53288942575
          -1.0507185459 -11.6427145 -0.2981916368 -0.18422779441 -7.8450198174 -0.026598371565
          -0.087018035352 -0.83778178692 0.090389452875 -0.064819194376 -13.174295425 -0.37822711468
          14.803118706 -19.925731659 -0.30266728997 7.3109664917 -16.885030746 0.38595357537
          12.522503853 -19.640104294 -0.26629433036 -0.055470332503 -0.85719072819 0.038686078042
          -0.52459031343 -9.6083288193 -0.02783505246 -0.9649297595 -11.681251526 -0.13968160748
          -0.10114848614 -3.0458126068 -0.099673137069 3.9624960423 -16.714546204 -0.31878915429
          -0.092191584408 -4.4364442825 -0.05168478936 0.69396609068 -12.921875 0.32375979424
          -0.070146434009 -5.9505724907 0.091581046581 5.1678256989 -16.754270554 0.17644555867
          -0.057270936668 -13.179787636 -0.11344054341 -0.064138397574 -5.9922714233 0.05311505124
          3.8804094791 -16.641561508 -0.14517471194 10.250585556 -19.33452034 -0.46013632417
          14.803189278 -19.943592072 -5.0937665947e-05 -0.10527475178 -1.7744123936 0.13413916528
          0 0 0 10.246219635 -19.387910843 -0.22996123135
          -0.081800661981 -1.8076803684 0.06827762723 12.522754669 -19.657978058 -3.6939447455e-05
          1.113692522 -14.814791679 -0.35493123531 -0.40032011271 -11.498153687 1.5038041056e-05
          -0.089545547962 -13.180222511 8.2354690676e-06 -0.2316146642 -9.7493696213 0.060304295272
          -0.053091626614 -0.86266452074 1.8676138325e-06 1.030626297 -14.761994362 -0.14939382672
          3.6828591824 -16.497354507 1.5616287783e-05 -0.21371522546 -9.8084220886 0.037927147001
          -0.066902957857 -6.0072627068 1.4369546079e-05 2.2603535652 -14.77152729 0.34156358242
          10.241731644 -19.404584885 -2.3266522476e-05 -0.19460141659 -7.7849326134 -0.044833865017
          -0.075466915965 -1.8171677589 4.429092769e-06 7.9523649216 -19.107923508 -0.38622719049
          14.803115845 -19.925758362 0.30256545544 0.90276861191 -14.665220261 1.5241017536e-05
          -0.090237013996 -2.891462326 0.15649221838 -0.093322515488 -4.3961772919 -0.09901496768
          -0.21499793231 -9.773727417 1.7273270714e-05 5.1709446907 -16.716056824 0.31898263097
          0 0 0 7.9555001259 -19.165981293 -0.18855212629
          -0.082933090627 -2.9307966232 0.081686891615 12.522498131 -19.640130997 0.2662204802
          -0.96490842104 -11.681276321 0.13970389962 -0.057243816555 -13.179802895 0.11346385628
          -0.055469501764 -0.85718971491 -0.038682296872 3.8804063797 -16.641559601 0.14520518482
          -0.064136892557 -5.9922699928 -0.05308682844 10.246214867 -19.387937546 0.22991484404
          7.9569063187 -19.185188293 -1.0071193174e-05 2.69145298 -16.655584335 -0.34835934639
          -0.015031502582 -7.7367172241 0.13042774796 -0.081593178213 -2.9414730072 7.1170961746e-06
          -0.081799142063 -1.8076786995 -0.068268626928 -0.0016674785875 -7.7759008408 0.063876919448
          1.0306386948 -14.76199913 0.14942348003 2.6591966152 -16.611484528 -0.1640881151
          -0.21371249855 -9.8084259033 -0.037893436849 5.6545934677 -18.895856857 -0.29628351331