<?xml version="1.0"?>
<VTKFile type="UnstructuredGrid" version="0.1" byte_order="LittleEndian" header_type="UInt32" compressor="vtkZLibDataCompressor">
  <UnstructuredGrid>
    <Piece NumberOfPoints="6405" NumberOfCells="4800">
      <PointData>
        <DataArray type="Float32" Name="DISPLACEMENT" NumberOfComponents="3" ComponentName0="X-DISPLACEMENT" ComponentName1="Y-DISPLACEMENT" ComponentName2="Z-DISPLACEMENT" format="ascii" RangeMin="0" RangeMax="352.21886431">
          0 0 0 0 0 0
          2.7097785473 -1.5636974573 -1.2499921322 0 0 0
          1.5712827444 -0.87721985579 -0.85040390491 0 0 0
          2.491820097 -1.7994315624 -0.49314987659 1.3668477535 -1.0828260183 -0.34576976299
          0 0 0 4.929438591 -3.2374002934 -1.2773418427
          0 0 0 4.8679456711 -3.5125126839 -0.65030652285
          3.1731071472 -2.6997134686 -0.94226753712 0 0 0
          0 0 0 2.5075073242 -1.8683495522 3.7491155069e-08
          0.8976906538 -0.57107889652 -0.49524796009 1.3599164486 -1.1200027466 1.1255752774e-08
          3.1030707359 -2.9324572086 -0.47895431519 0.77295255661 -0.77809113264 -0.20378738642
          4.8166556358 -3.5875372887 6.2933310119e-08 1.7449756861 -2.3224601746 -0.57936650515
          0 0 0 3.0605540276 -3.0015664101 1.680087891e-08
          1.6586222649 -2.5402133465 -0.29908895493 0 0 0
          6.9047894478 -5.6006803513 -1.1743094921 0 0 0
          0.7663372159 -0.81129235029 -1.5223651673e-08 0 0 0
          0 0 0 2.491820097 -1.7994315624 0.4931499362
          4.649699688 -5.1135582924 -0.90729504824 6.9268159866 -5.8023834229 -0.59379118681
          -0.028189860284 -0.4920694232 -0.090808041394 1.3668477535 -1.0828260183 0.3457697928
          4.6596679688 -5.3026599884 -0.46027287841 -0.12252394855 -0.72604227066 -0.06369791925
          1.6239651442 -2.5998892784 -2.7699623928e-08 4.8679456711 -3.5125124454 0.65030664206
          0 0 0 0 0 0
          0.082984097302 -2.1588900089 -0.24866423011 2.6984903812 -4.7872943878 -0.65062326193
          6.9049143791 -5.8698740005 8.2214306474e-08 3.1030707359 -2.9324572086 0.47895434499
          2.6518778801 -4.9573097229 -0.3301063776 0.77295255661 -0.77809113264 0.20378735662
          4.6462898254 -5.361374855 1.8032695337e-08 -0.011687560938 -2.3721168041 -0.13991212845
          -0.14526920021 -0.77199226618 -4.716234514e-08 0 0 0
          8.6543531418 -8.3658618927 -1.0172759295 0 0 0
          6.0402297974 -7.936568737 -0.84344893694 1.6586222649 -2.5402133465 0.29908889532
          8.7029590607 -8.4990520477 -0.51366639137 2.7097785473 -1.5636973381 1.2499921322
          0 0 0 0 0 0
          -0.033121075481 -2.4335570335 -7.3450017624e-08 2.6351387501 -5.0099930763 -4.3776203995e-08
          -0.91894203424 -0.71564537287 0.19030545652 6.0756382942 -8.0643768311 -0.42390590906
          1.5712827444 -0.87721973658 0.85040390491 0.55361956358 -4.5955796242 -0.43821918964
          0 0 0 6.9268159866 -5.802382946 0.59379136562
          -0.93351089954 -0.91991078854 0.10377825052 0.48113748431 -4.7441778183 -0.22028067708
          4.6596679688 -5.3026595116 0.46027290821 -0.1225239262 -0.72604221106 0.063697829843
          3.6986856461 -7.6365103722 -0.67891067266 -1.1576461792 -2.4366714954 -0.24676908553
          8.6972427368 -8.5437860489 9.3150156033e-08 4.929438591 -3.2374000549 1.2773419619
          0 0 0 0 0 0
          3.6829662323 -7.7465825081 -0.34219184518 3.1731071472 -2.6997132301 0.94226753712
          6.0785055161 -8.1061506271 1.4763179124e-08 -1.2623540163 -2.5348517895 -0.07868834585
          0.8976906538 -0.57107877731 0.49524793029 -0.82624596357 -0.98142051697 -8.5407606321e-08
          0.46856033802 -4.793504715 -1.1022264346e-07 2.6518778801 -4.9573092461 0.33010625839
          -0.011687557213 -2.3721165657 0.13991196454 3.6770670414 -7.7840261459 -6.1909709359e-08
          1.7449756861 -2.3224599361 0.57936644554 -1.2613569498 -2.6134767532 -1.3914448971e-07
          1.3026707172 -7.4418978691 -0.56306260824 8.7029590607 -8.4990520477 0.51366657019
          6.9047894478 -5.6006798744 1.1743096113 0 0 0
          10.187651634 -11.360271454 -0.88468676805 0 0 0
          0 0 0 -0.97456425428 -4.7119727135 -0.38467615843
          1.2580317259 -7.5257821083 -0.27891138196 10.236197472 -11.439886093 -0.44452854991
          7.3416614532 -10.971619606 -0.77996116877 6.0756382942 -8.0643768311 0.42390593886
          0.52309119701 -2.3974573612 -0.80155128241 0 0 0
          4.649699688 -5.1135582924 0.90729510784 -0.028189862147 -0.49206930399 0.090807951987
          -1.0504325628 -4.7946338654 -0.17389184237 -0.93351072073 -0.91991072893 -0.10377833992
          0.42483061552 -2.3677244186 -0.14825698733 0.48113745451 -4.7441773415 0.22028045356
          7.380710125 -11.050070763 -0.38962686062 3.6829662323 -7.7465825081 0.34219172597
          1.2491947412 -7.5584554672 -1.452142584e-07 10.238898277 -11.467403412 9.6022539253e-08
          -1.0121017694 -11.088767052 -0.047195944935 -1.2623540163 -2.5348517895 0.078688055277
          0 0 0 4.7286672592 -10.680630684 -0.68070739508
          0.0829840675 -2.1588897705 0.2486640662 2.6984903812 -4.787293911 0.65062314272
          -1.057977438 -4.8430838585 -1.8907532251e-07 7.3890318871 -11.075781822 7.9471034198e-09
          0.35792329907 -2.4235069752 -8.4149142765e-08 -1.2649246454 -11.311536789 -0.1847063005
          4.7317686081 -10.744132996 -0.34090349078 8.6543531418 -8.3658618927 1.0172760487
          0 0 0 -0.57272279263 -7.4256219864 -0.51382178068
          6.0402297974 -7.9365682602 0.84344899654 -1.1924272776 -11.346113205 -7.8466183595e-07
          -0.63426816463 -7.4658942223 -0.25493869185 4.7323422432 -10.766200066 -7.9514222762e-08
          -0.91894161701 -0.71564525366 -0.19030579925 1.2580316067 -7.5257821083 0.27891108394
          2.145822525 -10.487212181 -0.62123316526 10.236197472 -11.439886093 0.44452875853
          -1.8240106106 -5.4025669098 -0.75872814655 0.55361950397 -4.5955791473 0.43821895123
          0 0 0 -1.0504325628 -4.7946333885 0.17389145494
          2.1249301434 -10.524147034 -0.3100734055 0.4248303175 -2.3677239418 0.14825670421
          -1.9277245998 -5.2809286118 -0.32832321525 7.380710125 -11.050070763 0.38962689042
          3.6986856461 -7.6365098953 0.67891049385 -1.1576462984 -2.436671257 0.2467687726
          11.549728394 -14.464911461 -0.78658407927 0 0 0
          -0.63384580612 -7.4915509224 -2.3354441225e-07 8.563041687 -14.105976105 -0.72589927912
          11.589920998 -14.510479927 -0.3939588666 0 0 0
          -0.08723398298 -3.6621203423 -0.27695035934 8.5974607468 -14.151605606 -0.36139315367
          2.1205654144 -10.542207718 -1.7349721304e-07 -0.15076881647 -3.8710250854 -0.053642258048
          -1.2649241686 -11.311535835 0.18470518291 -1.9285204411 -5.2752876282 -3.6481424104e-07
          4.7317686081 -10.744132996 0.34090334177 5.7608971596 -13.820666313 -0.66623902321
          1.5241744518 -9.6310491562 0.036148358136 11.595768929 -14.526248932 9.287651892e-08
          0 0 0 1.2228047848 -9.6025485992 -0.023858606815
          5.7735037804 -13.853833199 -0.33250063658 8.6066522598 -14.166095734 -5.2454096622e-10
          -0.20166951418 -3.8262989521 -6.9395817093e-08 1.302670598 -7.4418973923 0.56306231022
          0.039062842727 -10.510613441 -0.66087055206 10.187651634 -11.360271454 0.88468694687
          0 0 0 -1.4135891199 -8.0757761002 -0.91482436657
          -0.63426822424 -7.4658942223 0.25493821502 -0.97456437349 -4.7119727135 0.384675771
          7.3416609764 -10.971619606 0.77996116877 0.52309060097 -2.397456646 0.80155080557
          -1.4543561935 -7.9166350365 -0.39132806659 0.0064655491151 -10.498078346 -0.32247132063
          2.1249301434 -10.524147034 0.31007304788 -1.927724719 -5.2809281349 0.3283226192
          5.7773704529 -13.864812851 -9.4195002021e-08 1.1621111631 -9.6200218201 -6.2779349719e-07
          3.0182881355 -13.625770569 -0.64107680321 0.79866576195 -10.212340355 -0.4189517796
          -1.0121014118 -11.088766098 0.047195207328 11.589920998 -14.510479927 0.39395904541
          4.7286672592 -10.68062973 0.68070721626 0 0 0
          0.01360163372 -10.516215324 -2.745115637e-07 -1.4268937111 -7.9349107742 -3.1279151358e-07
          3.0162591934 -13.632913589 -0.32067641616 8.5974607468 -14.151604652 0.36139315367
          0.46185192466 -10.751470566 -0.30295372009 -0.15076935291 -3.871024847 0.05364196375
          -0.57272297144 -7.4256215096 0.51382130384 3.0162448883 -13.640576363 -1.9414486019e-07
          5.7735037804 -13.853833199 0.33250045776 1.2228027582 -9.6025466919 0.023857520893
          0.45569601655 -10.995065689 -7.9501086248e-07 12.789096832 -17.620594025 -0.71953880787
          0 0 0 12.819605827 -17.646982193 -0.35949775577
          2.145822525 -10.487212181 0.62123280764 9.7164468765 -17.282794952 -0.68319284916
          -1.8240109682 -5.4025659561 0.75872713327 -0.90110456944 -11.130988121 -0.93916362524
          -0.32297942042 -3.7974233627 0.24522085488 -1.4543561935 -7.9166345596 0.39132741094
          0.0064654531889 -10.498078346 0.32247075438 0 0 0
          9.743897438 -17.309530258 -0.33963933587 -0.85464632511 -11.050901413 -0.44433298707
          -0.25866940618 -3.922015667 0.13434433937 0.73259663582 -13.645780563 -0.7196444273
          -0.3456966877 -11.060203552 -1.1757634878 11.549728394 -14.464910507 0.78658425808
          0 0 0 8.563041687 -14.105976105 0.72589927912
          12.826076508 -17.65590477 8.5385586601e-08 -0.30259683728 -11.509794235 -0.50775361061
          0.72987025976 -13.603050232 -0.35336101055 -0.087234936655 -3.6621198654 0.27694958448
          6.7799057961 -17.000461578 -0.64545047283 -0.65073567629 -7.9673914909 0.71561551094
          0 0 0 3.0162591934 -13.632913589 0.32067602873
          0.46184924245 -10.751473427 0.30295234919 9.7521133423 -17.317293167 -9.4885308499e-09
          -0.79240876436 -11.094293594 -4.0127676471e-07 6.7959985733 -17.016851425 -0.32150304317
          -0.73700475693 -8.086815834 0.19982121885 -0.31708616018 -3.9198243618 -2.4592355885e-07
          5.7608971596 -13.820666313 0.66623884439 1.5241714716 -9.6310462952 -0.036149363965
          0.7367092967 -13.611133575 -3.0415807828e-07 -0.13193383813 -11.883607864 -4.3537443162e-07
          0.039062678814 -10.510613441 0.66087001562 6.8013110161 -17.021335602 -1.0509707948e-07
          -0.78016781807 -8.1271915436 -7.171935863e-07 -1.4135892391 -8.0757761002 0.91482365131
          12.819605827 -17.646982193 0.35949793458 3.9083878994 -16.793304443 -0.63576221466
          0 0 0 -1.19264853 -9.97306633 -0.17797699571
          3.9177424908 -16.787099838 -0.31815612316 9.743897438 -17.309530258 0.33963930607
          -0.25866961479 -3.9220154285 -0.13434481621 -0.85464626551 -11.050901413 0.44433218241
          -1.296282053 -10.446174622 -0.0027445578016 3.0182878971 -13.625769615 0.64107638597
          -0.44715037942 -14.149356842 -0.94620972872 0.72987014055 -13.603050232 0.3533603847
          0.79866176844 -10.21234417 0.41895014048 -0.30259856582 -11.509792328 0.50775265694
          -1.7147604227 -11.812952995 -1.175101757 -0.39721032977 -14.082170486 -0.4601764977
          3.920566082 -16.788663864 -2.0631345876e-07 6.7959985733 -17.016851425 0.32150283456
          -0.73700499535 -8.0868148804 -0.19982250035 -1.6252319813 -11.678342819 -0.59955257177
          -1.3767051697 -10.638442993 -3.100478807e-08 13.945700645 -20.801404953 -0.67622983456
          0 0 0 -0.36265516281 -3.9191360474 0.29487657547
          -0.35664498806 -14.111337662 -4.2756647645e-07 1.4597061872 -16.776350021 -0.71563756466
          10.816405296 -20.477939606 -0.65150880814 12.789096832 -17.620592117 0.71953898668
          0 0 0 0 0 0
          -1.5724220276 -11.661100388 -5.5774489738e-07 -0.89078980684 -13.629145622 -0.15899708867
          13.967487335 -20.818576813 -0.33737039566 1.4745308161 -16.726678848 -0.35390120745
          10.836875916 -20.495357513 -0.32380104065 9.7164468765 -17.282794952 0.68319278955
          -0.30563813448 -3.9194564819 0.14863631129 -0.90110462904 -11.130988121 0.93916285038
          -0.32297992706 -3.7974228859 -0.24522146583 -1.2105696201 -13.90120697 -0.080678887665
          3.9177424908 -16.787099838 0.31815570593 -1.2962810993 -10.446176529 0.0027438793331
          7.7826247215 -20.196552277 -0.6244609952 0.73259651661 -13.645780563 0.71964383125
          -0.34569910169 -11.060200691 1.1757624149 0 0 0
          -0.52813106775 -7.5657453537 0.38669016957 13.97340107 -20.824077606 7.5558325818e-08
          -0.32286399603 -3.9339256287 -3.3265999377e-07 1.4823329449 -16.727531433 -3.1667894973e-07
          7.798412323 -20.205507278 -0.31075361371 6.7799057961 -17.000461578 0.64545023441
          10.843543053 -20.499782562 -1.7469069746e-08 -0.65073633194 -7.9673905373 -0.7156162262
          -1.3153305054 -14.019968987 -1.1712285186e-06 -0.56422609091 -7.5754113197 0.23637086153
          -0.39721029997 -14.082170486 0.46017566323 -1.6252318621 -11.678342819 0.59955149889
          -1.1252470016 -14.963372231 -1.105884552 7.8039188385 -20.207029343 -1.1141090539e-07
          -0.59349483252 -7.6421465874 -6.2765622033e-07 -0.95394831896 -15.003165245 -0.54648256302
          4.8076109886 -19.975284576 -0.61982226372 0 0 0
          -0.67043942213 -10.367238998 0.33198046684 13.967487335 -20.818576813 0.33737057447
          -0.30563828349 -3.9194564819 -0.14863695204 1.4745306969 -16.726678848 0.3539005816
          4.8212890625 -19.96540451 -0.30996829271 3.908387661 -16.793304443 0.63576179743
          10.836875916 -20.495357513 0.32380101085 0.089826598763 -17.169584274 -0.91075199842
          -1.06153965 -13.468039513 -0.63064038754 -1.1926473379 -9.9730682373 0.17797549069
          -0.83673846722 -10.542497635 0.22266840935 -1.2105693817 -13.901204109 0.080676674843
          0.13288672268 -17.090036392 -0.44398617744 -1.3316665888 -13.601358414 -0.36690756679
          -0.84025961161 -15.093070984 -5.3957757018e-07 -0.44715034962 -14.149356842 0.94620889425
          7.798412323 -20.205507278 0.31075340509 -1.7147603035 -11.812952042 1.1751008034
          4.8256726265 -19.964490891 -2.102595289e-07 -0.56422644854 -7.5754113197 -0.23637218773
          -0.89078837633 -10.6114645 -8.7067900267e-07 0.15917745233 -17.088220596 -4.3609279032e-07
          -1.4095932245 -13.638298035 -1.1748369388e-06 -0.76995825768 -13.663998604 0.036666493863
          2.2159450054 -19.91667366 -0.6927395463 13.945700645 -20.801404953 0.67623001337
          0 0 0 -0.95394814014 -15.003165245 0.54648143053
          -0.36265572906 -3.9191358089 -0.29487732053 -1.0517084599 -13.861084938 0.03208803758
          1.459706068 -16.776350021 0.71563690901 10.816405296 -20.477939606 0.65150880814
          2.2371852398 -19.868242264 -0.34384837747 15.049506187 -23.999187469 -0.65024232864
          0 0 0 -0.89078968763 -13.629141808 0.15899482369
          15.064159393 -24.01335144 -0.32420998812 -0.1869187057 -3.9076566696 0.17850705981
          11.877059937 -23.684972763 -0.62934714556 4.8212890625 -19.96540451 0.30996784568
          0 0 0 -0.83673912287 -10.542497635 -0.2226703167
          11.891471863 -23.699148178 -0.31290489435 -0.14382715523 -3.8555810452 0.085878953338
          0.13288675249 -17.090036392 0.44398531318 -1.3316661119 -13.601358414 0.36690491438
          7.7826247215 -20.196552277 0.62446075678 -1.1427705288 -13.929267883 -1.5527168671e-06
          2.2468085289 -19.86681366 -3.1776164633e-07 -0.52813208103 -7.5657448769 -0.38669162989
          -0.68345671892 -17.830444336 -1.0174447298 -0.33392706513 -7.4498610497 0.26657795906
          8.7680368423 -23.404460907 -0.60629367828 -1.5171914101 -15.923094749 -1.1190338135
          15.069101334 -24.017660141 6.4538312472e-08 0 0 0
          -0.59450536966 -17.775026321 -0.49826216698 11.896548271 -23.702461243 -2.3874962451e-08
          -0.15256942809 -3.8602261543 -4.4962737888e-07 8.7818050385 -23.411481857 -0.30162873864
          -0.32520923018 -7.3970170021 0.14580988884 -1.4873282909 -15.914299011 -0.51612478495
          -1.1252467632 -14.963372231 1.1058834791 -0.53413313627 -17.766267776 -5.6321056263e-07
          -0.67927068472 -13.930704117 -0.35350483656 -1.051710248 -13.861082077 -0.032091382891
          0.70288598537 -20.200834274 -0.87637865543 8.7867946625 -23.412246704 -1.1329353811e-07
          4.8076109886 -19.975284576 0.61982178688 2.2371852398 -19.868240356 0.34384772182
          -1.4972786903 -15.915554047 -5.9695480559e-07 -0.33701044321 -7.4076337814 -9.8385942238e-07
          -0.67044097185 -10.367238998 -0.33198317885 15.064159393 -24.01335144 0.32421013713
          5.709692955 -23.172719955 -0.60175275803 -0.97957378626 -14.131444931 -0.16894307733
          -0.61841821671 -10.639780998 0.30688419938 0.74594318867 -20.129470825 -0.42880684137
          0.089826636016 -17.169584274 0.91075116396 -1.0615390539 -13.468038559 0.63063722849
          0 0 0 -0.6568198204 -10.617054939 0.20278066397
          11.891471863 -23.699148178 0.31290483475 -0.14382728934 -3.8555810452 -0.085879847407
          5.724032402 -23.16374588 -0.30079978704 -1.095084548 -14.249246597 -2.1756573005e-06
          0.77311134338 -20.12830162 -4.3547225914e-07 -0.59450525045 -17.775026321 0.49826103449
          5.7289133072 -23.162612915 -2.0697287084e-07 -0.7260620594 -10.650830269 -1.6420733573e-06
          8.7818050385 -23.411481857 0.30162850022 -0.3252094686 -7.3970170021 -0.1458118856
          -1.4873284101 -15.914298058 0.51612347364 -0.76996147633 -13.663994789 -0.036669917405
          2.2159450054 -19.91667366 0.69273889065 2.9948806763 -23.077796936 -0.66843420267
          15.049506187 -23.999187469 0.65024244785 0 0 0
          -1.1282169819 -13.223899841 0.61341261864 -0.18691937625 -3.9076564312 -0.17850807309
          11.877059937 -23.684972763 0.62934708595 -0.97957593203 -14.131443977 0.1689388901
          0.74594318867 -20.129470825 0.42880597711 3.0187158585 -23.032728195 -0.33141306043
          -1.0985424519 -18.677062988 -1.0497102737 -1.3570570946 -13.321424484 0.1473262012
          -0.6568198204 -10.617054939 -0.20278382301 5.724032402 -23.16374588 0.30079936981
          -1.0953416824 -18.592206955 -0.53460341692 -0.17694123089 -20.715936661 -0.9851847887
          -1.3475898504 -17.755840302 -0.89534002542 16.122516632 -27.215072632 -0.63671672344
          0 0 0 12.910079002 -26.906330109 -0.61473089457
          -0.6834564805 -17.830444336 1.0174435377 -0.33392798901 -7.4498605728 -0.26657998562
          8.7680368423 -23.404460907 0.60629349947 -1.5507954359 -17.448184967 -0.51311844587
          -0.11359570175 -20.676263809 -0.48957389593 -1.5171914101 -15.923092842 1.1190317869
          16.131656647 -27.230133057 -0.31746092439 0 0 0
          -1.3792288303 -13.372068405 -2.4753594516e-06 3.0299875736 -23.0311203 -3.0868557133e-07
          0.0076759723015 -3.8213188648 0.045944217592 12.919694901 -26.921134949 -0.30585330725
          0.02177561447 -3.7722964287 0.017132032663 -1.1008011103 -18.540000916 -7.3698095093e-07
          9.7367982864 -26.626741409 -0.59125369787 -1.7057658434 -17.180391312 -1.6707641635e-06
          -0.071689419448 -20.679334641 -5.6321943021e-07 16.135627747 -27.234666824 5.3045248194e-08
          0 0 0 0.064720071852 -7.3982701302 0.061324395239
          9.7484693527 -26.635215759 -0.29424408078 12.923398972 -26.924743652 -2.8659432161e-08
          -0.67927420139 -13.930703163 0.3535002172 0.70288598537 -20.200834274 0.87637776136
          0.021412145346 -3.7744531631 -6.4232330033e-07 0.064520604908 -7.32158041 0.028809646145
          5.7096924782 -23.172719955 0.60175234079 -0.61841881275 -10.639780045 -0.30688735843
          -2.9122095108 -14.908259392 -0.90997093916 1.4016506672 -23.29070282 -0.8500393033
          -1.3570564985 -13.321423531 -0.1473313719 3.0187158585 -23.032726288 0.33141243458
          -3.0555727482 -14.819573402 -0.37297943234 1.4409716129 -23.218027115 -0.4127163291
          -1.0953415632 -18.592206955 0.5346019268 9.7527456284 -26.636581421 -1.1115220389e-07
          0.063866645098 -7.330935955 -1.3663677692e-06 6.6064891815 -26.388046265 -0.58399373293
          -1.5507991314 -17.448177338 0.51311457157 -0.11359557509 -20.676263809 0.48957276344
          16.131656647 -27.230133057 0.3174610436 0 0 0
          0.088362298906 -10.671699524 0.05844207108 6.6203994751 -26.382650375 -0.29177674651
          12.919694901 -26.921134949 0.30585324764 0.077003821731 -10.59950161 0.029060611501
          -3.1069335938 -14.839375496 -3.6716708109e-06 1.4620543718 -23.20967865 -4.2072437623e-07
          0.021775575355 -3.7722961903 -0.017133265734 9.7484693527 -26.635215759 0.29424387217
          6.6249127388 -26.382511139 -1.9730435952e-07 0.071983650327 -10.623408318 -2.0323006993e-06
          2.9948806763 -23.077796936 0.66843360662 -0.76192778349 -21.4227314 -1.0526713133
          0.064520649612 -7.32158041 -0.028812306002 -1.1282167435 -13.223897934 -0.61341649294
          -1.8482317924 -19.204051971 -1.0879296064 -0.70077216625 -21.401596069 -0.52676510811
          -1.098541975 -18.677061081 1.049708724 -1.8507127762 -19.15189743 -0.5810213089
          -3.0555715561 -14.819572449 0.37297230959 1.4409716129 -23.218027115 0.41271549463
          -0.17694102228 -20.715936661 0.98518365622 -1.3475952148 -17.755825043 0.89533984661
          0.066820770502 -13.520923615 0.038922268897 3.7958381176 -26.265384674 -0.64327782393
          16.122516632 -27.215072632 0.63671684265 0 0 0
          12.910079002 -26.906330109 0.61473083496 0.047943353653 -13.451440811 0.018360951915
          -0.66954916716 -21.40760994 -7.1237172961e-07 -2.1028015614 -18.179706573 -1.1576159
          0.42250663042 -23.68444252 -0.94507139921 3.8217229843 -26.227321625 -0.31832420826
          0.0076753180474 -3.8213186264 -0.045945502818 -1.834045887 -19.14487648 -1.1916016547e-06
          6.6203994751 -26.382650375 0.29177635908 0.077004231513 -10.599500656 -0.029064597562
          0.47326141596 -23.632804871 -0.47135841846 -2.1621968746 -17.778848648 -0.72435677052
          9.7367982864 -26.626739502 0.59125345945 0.047739356756 -13.540192604 -2.5329279651e-06
          3.8332157135 -26.227369308 -2.9039028959e-07 0.064719475806 -7.3982696533 -0.061326961964
          0.49513855577 -23.615684509 -5.3626075669e-07 17.18088913 -30.455547333 -0.63220560551
          0 0 0 -2.1410918236 -17.575195312 -5.3534581639e-06
          17.185951233 -30.474147797 -0.31530919671 0 0 0
          -0.70077204704 -21.401596069 0.5267636776 13.924942017 -30.149274826 -0.6057189703
          -2.9122040272 -14.908257484 0.90996187925 1.4016506672 -23.29070282 0.85003852844
          0.20057700574 -3.6274793148 -0.04402461648 -1.8507131338 -19.15189743 0.58101916313
          13.931020737 -30.167390823 -0.30163452029 0.19330349565 -3.6314237118 -0.025771416724
          6.6064891815 -26.388046265 0.5839933157 17.189159393 -30.479858398 4.1118514815e-08
          0.047944236547 -13.451439857 -0.01836582087 10.689987183 -29.870082855 -0.57853215933
          0.5141658783 -7.1572418213 -0.10655581206 3.8217229843 -26.227319717 0.31832361221
          0 0 0 2.1689429283 -26.395082474 -0.81029438972
          -0.032091066241 -15.162183762 0.014785675332 0.088362336159 -10.67169857 -0.058445729315
          0.49552577734 -7.1624083519 -0.064557462931 10.700153351 -29.88259697 -0.28809335828
          13.933673859 -30.172254562 -3.1791184796e-08 0.47326150537 -23.632804871 0.47135734558
          -0.0029934856575 -15.380908012 -0.01287792623 2.212223053 -26.335775375 -0.39605036378
          -2.1621935368 -17.778841019 0.72434782982 0.20198558271 -3.6428017616 -8.445556432e-07
          -1.2128236294 -22.354692459 -1.1537567377 10.703830719 -29.88549614 -1.052496188e-07
          -0.76192748547 -21.4227314 1.052670002 0.5050907135 -7.1831445694 -1.6988420839e-06
          0.030180217698 -15.33334446 -2.4860974008e-06 -1.1719238758 -22.308635712 -0.54835629463
          2.2303111553 -26.330381393 -3.935703603e-07 -1.8482329845 -19.204051971 1.0879285336
          17.185951233 -30.474147797 0.31530928612 7.4945192337 -29.626031876 -0.56519699097
          -1.4120230675 -20.290315628 -1.3246529102 0 0 0
          0.86834168434 -10.530124664 -0.19682967663 -0.2596398294 -24.20391655 -0.98363047838
          0.86875969172 -10.514920235 -0.1409214735 7.5079340935 -29.626720428 -0.28246217966
          13.931020737 -30.167390823 0.30163443089 -1.1961189508 -20.635799408 -0.61718350649
          -0.18524836004 -24.185722351 -0.49130740762 0.19330357015 -3.6314237118 0.025769805536
          0.06682214886 -13.520922661 -0.038927011192 3.7958381176 -26.265384674 0.64327722788
          -1.1952625513 -22.270202637 -8.4181021975e-07 -2.1027953625 -18.179697037 1.1576149464
          0.42250680923 -23.684440613 0.94507038593 7.5117139816 -29.628343582 -1.8193165374e-07
          10.700153351 -29.88259697 0.28809314966 -0.99731010199 -20.879907608 -1.660797011e-06
          0.49552604556 -7.1624078751 0.064554110169 0.91615486145 -10.563511848 -2.3555112421e-06
          -0.0029920267407 -15.380906105 0.012872788124 2.212223053 -26.335775375 0.39604958892
          -0.16056977212 -24.174982071 -6.4789696808e-07 1.094630599 -26.624851227 -0.87988394499
          0.019117521122 -16.930221558 -0.0039042255376 1.1570936441 -26.599346161 -0.44204220176
          0.017025411129 -17.396839142 -0.11318220198 17.18088913 -30.455545425 0.63220572472
          0 0 0 -1.1719236374 -22.308635712 0.54835468531
          1.3087645769 -13.150489807 -0.46697339416 4.6093416214 -29.474082947 -0.61185657978
          1.4977983236 -13.254947662 -0.12527452409 13.924942017 -30.149274826 0.60571885109
          0.20057636499 -3.6274793148 0.044023022056 4.6359548569 -29.445856094 -0.30312848091
          7.5079340935 -29.626720428 0.28246179223 -1.1961097717 -20.635812759 0.61718124151
          0.86876052618 -10.514920235 0.14091689885 -0.18524818122 -24.185722351 0.49130612612
          1.1797044277 -26.592256546 -4.9372982858e-07 0.017987830564 -17.378461838 -1.7097090677e-06
          10.689987183 -29.870082855 0.57853198051 0.51416552067 -7.1572413445 0.10655269772
          2.1689431667 -26.395082474 0.81029361486 1.5220860243 -13.291841507 -2.4027099244e-06
          -0.032089613378 -15.162180901 -0.01478953287 4.6459693909 -29.44780159 -2.6456049795e-07
          18.236783981 -33.730869293 -0.63434380293 0 0 0
          -1.2128232718 -22.354692459 1.1537553072 1.1570937634 -26.599346161 0.44204121828
          0 0 0 14.9288311 -33.424804688 -0.60068196058
          -0.75386142731 -23.5707798 -0.97960180044 0.017026277259 -17.396835327 0.1131804958
          0.28856676817 -3.2988164425 0.0059176976793 -0.74104630947 -24.767686844 -0.9674384594
          18.238954544 -33.75504303 -0.31651139259 7.4945192337 -29.626031876 0.56519663334
          14.932479858 -33.448318481 -0.29940083623 0.30693522096 -3.3737339973 0.03695230186
          -1.4120069742 -20.290336609 1.3246541023 -0.6575294137 -23.668540955 -0.4774864614
          0.86834251881 -10.530123711 0.19682534039 2.9867138863 -29.509309769 -0.75403743982
          1.4977998734 -13.254946709 0.1252695024 -0.25963953137 -24.20391655 0.98362922668
          2.8399162292 -15.130115509 0.74821984768 4.6359548569 -29.445856094 0.30312794447
          -0.68489980698 -24.787591934 -0.48164153099 3.0803129673 -14.848917007 0.3820862174
          3.0380778313 -29.46913147 -0.36904022098 11.629151344 -33.145599365 -0.56715762615
          18.241676331 -33.762638092 2.8485674264e-08 0.79668617249 -6.7628283501 -0.011877543293
          0 0 0 11.638504982 -33.164169312 -0.28263968229
          0.78019684553 -6.9171915054 -0.028310609981 14.934426308 -33.455162048 -3.3706651692e-08
          0.37987416983 -26.948255539 -0.87874215841 -0.6998795867 -23.601455688 -8.1268404983e-07
          -0.71012818813 -24.762125015 -7.2481805091e-07 0.15103004873 -21.874961853 -0.1477535516
          0.29835751653 -3.3474202156 -1.0970979929e-06 0.45484951138 -26.966554642 -0.43973040581
          3.0563290119 -29.468067169 -3.5595655845e-07 0.059969879687 -22.148429871 0.04732182622
          3.1128382683 -14.843314171 -1.6149856492e-06 1.0946307182 -26.624851227 0.87988299131
          11.641789436 -33.169319153 -9.6407745787e-08 0.019118146971 -16.930215836 0.0038998678792
          0.83738428354 -6.9451379776 -2.1084454147e-06 8.3676490784 -32.89825058 -0.54525625706
          18.238954544 -33.75504303 0.3165114522 0.4696085155 -26.964609146 -5.8162413552e-07
          1.1380177736 -10.281455994 -0.30905157328 1.3087669611 -13.1504879 0.46696901321
          -0.038644112647 -22.080215454 2.6175490575e-07 4.6093416214 -29.474082947 0.61185604334
          0 0 0 8.3807821274 -32.906955719 -0.27266132832
          1.1865473986 -10.468740463 -0.12923698127 14.932479858 -33.448318481 0.29940077662
          -0.65752881765 -23.668542862 0.47748476267 -0.68489950895 -24.787591934 0.48164010048
          0.30693542957 -3.3737339973 -0.036954361945 3.0380778313 -29.46913147 0.36903950572
          3.0803143978 -14.8489151 -0.38208892941 11.638504982 -33.164169312 0.28263947368
          8.3839635849 -32.911132812 -1.618931833e-07 1.8631062508 -29.592388153 -0.78984034061
          2.1290438175 -16.731786728 1.1724387407 1.2478203773 -10.542757988 -2.7897090149e-06
          0.78019744158 -6.9171910286 0.028306486085 2.1319859028 -17.465984344 0.52380383015
          0.4548496902 -26.966554642 0.43972924352 1.9299277067 -29.588912964 -0.39527150989
          0.059969514608 -22.148435593 -0.047322597355 5.4312105179 -32.720672607 -0.57808703184
          18.236783981 -33.730869293 0.63434386253 0 0 0
          1.338639617 -13.36777401 0.036460071802 5.4583735466 -32.704223633 -0.28581163287