<?xml version="1.0"?>
<VTKFile type="UnstructuredGrid" version="0.1" byte_order="LittleEndian" header_type="UInt32" compressor="vtkZLibDataCompressor">
  <UnstructuredGrid>
    <Piece NumberOfPoints="6405" NumberOfCells="4800">
      <PointData>
        <DataArray type="Float32" Name="DISPLACEMENT" NumberOfComponents="3" ComponentName0="X-DISPLACEMENT" ComponentName1="Y-DISPLACEMENT" ComponentName2="Z-DISPLACEMENT" format="ascii" RangeMin="0" RangeMax="324.94263652">
          0 0 0 0 0 0
          2.5349283218 -1.5031144619 -1.1630955935 0 0 0
          1.516938448 -0.85907292366 -0.82082265615 0 0 0
          2.3282365799 -1.7037820816 -0.45842599869 1.3192234039 -1.0316694975 -0.33412781358
          0 0 0 4.5777659416 -3.0150446892 -1.1797184944
          0 0 0 4.5191483498 -3.2430343628 -0.60310423374
          3.0537042618 -2.5177168846 -0.91110533476 0 0 0
          0 0 0 2.3403067589 -1.7635651827 5.6425623285e-08
          0.92340093851 -0.55239707232 -0.51932293177 1.311403513 -1.0623420477 1.5090927619e-08
          2.9871871471 -2.7049202919 -0.46333432198 0.80044138432 -0.72226160765 -0.2114200145
          4.4692106247 -3.3050160408 7.5018455448e-08 1.8609757423 -2.1456177235 -0.62149351835
          0 0 0 2.94739604 -2.7605087757 3.9092098447e-09
          1.776555419 -2.3163444996 -0.31803712249 0 0 0
          6.3789377213 -5.0678110123 -1.0827388763 0 0 0
          0.80796349049 -0.74754285812 -1.9061987544e-08 0 0 0
          0 0 0 2.3282363415 -1.7037819624 0.45842608809
          4.4704232216 -4.6177396774 -0.87803530693 6.4004282951 -5.2268204689 -0.55005776882
          0.13931794465 -0.41150078177 -0.17228111625 1.3192232847 -1.0316694975 0.33412784338
          4.4825191498 -4.7656574249 -0.44575151801 0.038312617689 -0.6070471406 -0.096734337509
          1.7464283705 -2.361947298 -5.796303526e-08 4.5191478729 -3.2430341244 0.60310435295
          0 0 0 0 0 0
          0.45165914297 -1.9486302137 -0.36669972539 2.8609707355 -4.307612896 -0.68429082632
          6.3814406395 -5.2817883492 6.7261744618e-08 2.9871871471 -2.7049200535 0.46333432198
          2.8275258541 -4.4359936714 -0.34796825051 0.80044138432 -0.72226154804 0.2114199698
          4.4713754654 -4.8127288818 -3.1203001072e-08 0.35782691836 -2.1080317497 -0.19362221658
          0.039332266897 -0.64251583815 -5.5389676845e-08 0 0 0
          7.9801650047 -7.3967590332 -0.94434946775 0 0 0
          5.7996530533 -6.9966497421 -0.81271845102 1.776555419 -2.3163442612 0.31803700328
          8.0268268585 -7.5009822845 -0.4785836339 2.5349283218 -1.5031142235 1.1630957127
          0 0 0 0 0 0
          0.34216272831 -2.1562714577 -1.1785432008e-07 2.814463377 -4.4780163765 -1.210932794e-07
          -0.40259435773 -0.6782668829 -0.16822320223 5.8376526833 -7.0975728035 -0.40928548574
          1.5169383287 -0.85907280445 0.82082265615 1.1286641359 -4.0956420898 -0.54602015018
          0 0 0 6.4004282951 -5.2268204689 0.55005788803
          -0.54023718834 -0.75754588842 -0.065511360765 1.0739104748 -4.1994099617 -0.26805686951
          4.4825191498 -4.7656574249 0.4457514286 0.038312632591 -0.60704708099 0.096734233201
          3.880674839 -6.7051563263 -0.68936681747 -0.29985979199 -2.1607732773 -0.40488147736
          8.0248689651 -7.537463665 3.2476133782e-08 4.5777659416 -3.0150444508 1.1797186136
          0 0 0 0 0 0
          3.8849384785 -6.794737339 -0.34816905856 3.0537040234 -2.5177166462 0.91110533476
          5.8423643112 -7.1323356628 -8.7453081221e-08 -0.35334983468 -2.2248077393 -0.16443529725
          0.92340087891 -0.55239695311 0.51932287216 -0.54640102386 -0.82820856571 -1.0726444799e-07
          1.0604703426 -4.2361388206 -2.1462743405e-07 2.8275256157 -4.4359936714 0.34796801209
          0.35782685876 -2.1080317497 0.19362196326 3.8833458424 -6.8272743225 -2.0195118111e-07
          1.8609755039 -2.145617485 0.62149339914 -0.3529779613 -2.2887091637 -2.141949409e-07
          2.0366325378 -6.4850010872 -0.59963405132 8.0268268585 -7.5009818077 0.4785836935
          6.3789377213 -5.0678105354 1.0827389956 0 0 0
          9.4052257538 -9.8744516373 -0.83390766382 0 0 0
          0 0 0 0.050069905818 -4.1381697655 -0.44441047311
          2.0204343796 -6.5621976852 -0.29415753484 9.4510354996 -9.9419622421 -0.41982489824
          7.0451388359 -9.503698349 -0.74679493904 5.8376526833 -7.0975723267 0.40928530693
          -0.046518746763 -1.2832808495 0.13977615535 0 0 0
          4.4704232216 -4.6177392006 0.87803524733 0.13931789994 -0.41150066257 0.17228099704
          0.03751507774 -4.2216291428 -0.21666571498 -0.54023718834 -0.75754582882 0.065511144698
          -1.604526639 -0.83848786354 0.012606876902 1.0739102364 -4.1994099617 0.26805642247
          7.0857954025 -9.5728197098 -0.37393322587 3.8849384785 -6.794737339 0.34816867113
          2.0093765259 -6.5886454582 -3.2467917777e-07 9.4571409225 -9.9662590027 -2.4917685693e-08
          -0.99766391516 -2.4989545345 -0.37864783406 -0.35334992409 -2.2248077393 0.16443485022
          0 0 0 4.9068470001 -9.211555481 -0.66090476513
          0.45165896416 -1.9486299753 0.36669942737 2.8609704971 -4.3076124191 0.6842905879
          0.029632758349 -4.2529587746 -3.3927386767e-07 7.0954327583 -9.5968475342 -1.5944387144e-07
          -1.6844214201 -0.90315008163 1.3220862627e-08 -1.5010993481 -2.2213149071 -0.087274633348
          4.9268426895 -9.2764024734 -0.33068877459 7.9801650047 -7.3967585564 0.94434952736
          0 0 0 0.46954986453 -6.3584733009 -0.44284555316
          5.7996525764 -6.9966492653 0.81271827221 -1.7007387877 -2.1742656231 -4.3720126541e-07
          0.46101936698 -6.4463071823 -0.23663498461 4.9306030273 -9.2985963821 -2.9176109706e-07
          -0.40259456635 -0.67826670408 0.16822293401 2.0204341412 -6.5621972084 0.29415687919
          2.9275135994 -9.00390625 -0.57872599363 9.4510354996 -9.9419612885 0.41982486844
          -0.74928641319 -4.52698946 -0.50271779299 1.1286638975 -4.095641613 0.54601967335
          0 0 0 0.037514984608 -4.2216291428 0.21666502953
          2.9272377491 -9.061126709 -0.29026994109 -1.604527235 -0.83848768473 -0.012607139535
          -0.81436377764 -4.5109419823 -0.20294493437 7.0857954025 -9.5728187561 0.37393289804
          3.8806746006 -6.7051558495 0.68936640024 -0.29986006021 -2.1607730389 0.40488103032
          10.701543808 -12.434558868 -0.75662887096 0 0 0
          0.46599107981 -6.4686746597 -4.552579469e-07 8.2163972855 -12.085892677 -0.69241464138
          10.738153458 -12.482816696 -0.37903669477 0 0 0
          -0.14449237287 -1.5524988174 -0.18003745377 8.2501173019 -12.136667252 -0.34521612525
          2.9223632812 -9.0792350769 -4.3278149064e-07 -0.038553349674 -1.4963613749 -0.07564035058
          -1.5010999441 -2.2213149071 0.087274096906 -0.75678384304 -4.5530366898 -3.3911297237e-07
          4.9268422127 -9.2764015198 0.33068820834 5.9043111801 -11.803525925 -0.62450641394
          -0.31216186285 -3.1396570206 -0.31953504682 10.746178627 -12.499817848 -9.8057071796e-08
          0 0 0 -0.36730480194 -2.9831018448 -0.35270810127
          5.925506115 -11.850810051 -0.31045642495 8.2597198486 -12.153644562 -2.411628941e-07
          -0.093379504979 -1.4999063015 -9.4461523759e-07 2.036632061 -6.4850001335 0.59963339567
          1.0201039314 -8.890958786 -0.50143778324 9.4052248001 -9.8744506836 0.83390760422
          0 0 0 -0.42591878772 -6.7389931679 -0.61299669743
          0.46101921797 -6.4463067055 0.23663406074 0.050069667399 -4.1381692886 0.44440981746
          7.0451383591 -9.503698349 0.74679464102 -0.046518132091 -1.2832821608 -0.13977640867
          -0.44119021297 -6.7244100571 -0.25774300098 1.0124418736 -8.9384088516 -0.25638613105
          2.9272375107 -9.061126709 0.29026907682 -0.8143659234 -4.5109415054 0.20294316113
          5.9308609962 -11.865164757 -3.8396169089e-07 -0.22347593307 -2.8528301716 -3.641641797e-06
          3.7226366997 -11.627961159 -0.55994677544 -0.62735819817 -4.9736018181 -0.92631870508
          -0.99766582251 -2.4989533424 0.37864673138 10.738153458 -12.482816696 0.37903648615
          4.9068465233 -9.211555481 0.66090416908 0 0 0
          1.0236120224 -8.9567508698 -5.8034873973e-07 -0.38063323498 -6.7952604294 -6.1492687564e-07
          3.7271122932 -11.660582542 -0.28225919604 8.2501173019 -12.136667252 0.34521564841
          -0.56938165426 -4.9135804176 0.1408546567 -0.038551688194 -1.4963617325 0.07563854754
          0.4695495069 -6.3584728241 0.44284459949 3.726793766 -11.672676086 -5.3533295841e-07
          5.925506115 -11.850809097 0.31045565009 -0.36729845405 -2.9831030369 0.35270616412
          -0.10907592624 -5.0996413231 -5.9598132793e-06 11.908679008 -15.060051918 -0.70603442192
          0 0 0 11.935006142 -15.099111557 -0.3525262773
          2.9275131226 -9.00390625 0.57872515917 9.3228654861 -14.729314804 -0.65246039629
          -0.74928808212 -4.52698946 0.50271552801 0.00757834455 -9.239979744 -0.66527676582
          0.051815703511 -1.7264755964 -0.13292638958 -0.44119232893 -6.7244076729 0.25774168968
          1.0124416351 -8.9384088516 0.25638496876 0 0 0
          9.347568512 -14.770197868 -0.3244780004 0.014936087653 -9.2026357651 -0.3035145998
          -0.018897563219 -1.7420482635 -0.084770143032 1.6543726921 -11.572875977 -0.5531321764
          0.21735690534 -9.5676488876 -0.70761305094 10.701542854 -12.434558868 0.75662869215
          0 0 0 8.2163963318 -12.085891724 0.69241416454
          11.942176819 -15.112319946 -1.8168789495e-07 0.16001988947 -9.8898849487 0.067878358066
          1.6573088169 -11.584842682 -0.2753739655 -0.14448978007 -1.5524994135 0.18003760278
          6.8565483093 -14.459533691 -0.59433704615 -0.089058101177 -3.5677697659 -0.30800071359
          0 0 0 3.7271120548 -11.660582542 0.28225812316
          -0.56935739517 -4.9135780334 -0.14087061584 9.3553314209 -14.782974243 -3.2807042771e-07
          0.050044704229 -9.2334918976 -7.7932776321e-07 6.8742132187 -14.495186806 -0.29475238919
          -0.10661353171 -3.598811388 -0.13873958588 0.011183262803 -1.727748394 -8.3304996679e-07
          5.9043107033 -11.803525925 0.62450563908 -0.31215468049 -3.1396608353 0.31953391433
          1.6693968773 -11.601644516 -6.9649632906e-07 -0.72963738441 -10.44506073 -7.9202527559e-06
          1.0201034546 -8.8909578323 0.50143659115 6.8794322014 -14.504839897 -4.749470861e-07
          -0.1093614772 -3.5802252293 -1.3263894516e-06 -0.42592251301 -6.7389893532 0.61299514771
          11.935006142 -15.099111557 0.35252591968 4.4725766182 -14.290063858 -0.54610413313
          0 0 0 -0.43001750112 -6.0448098183 -0.2069812566
          4.4804320335 -14.306900024 -0.27464693785 9.347568512 -14.770197868 0.32447734475
          -0.018895886838 -1.7420483828 0.084768973291 0.014935871586 -9.2026348114 0.30351305008
          -0.46732053161 -6.1925654411 -0.27042606473 3.7226364613 -11.627960205 0.55994570255
          0.46160596609 -11.842178345 -0.67703992128 1.6573085785 -11.584841728 0.27537256479
          -0.62734180689 -4.9735884666 0.92633217573 0.16003569961 -9.8899936676 -0.067881554365
          -0.86338704824 -9.735490799 -0.80080688 0.49850556254 -11.821599007 -0.32584026456
          4.4821119308 -14.313899994 -6.2985452587e-07 6.8742132187 -14.495185852 0.29475143552
          -0.1066088751 -3.5988109112 0.13873782754 -0.83820533752 -9.6530685425 -0.39762365818
          -0.49287882447 -6.040459156 -2.2304493541e-06 13.05532074 -17.747745514 -0.67435902357
          0 0 0 8.8805929408e-05 -1.8498175144 -0.065548755229
          0.54032987356 -11.853446007 -8.7237668822e-07 2.2806251049 -14.249232292 -0.56446707249
          10.379317284 -17.429353714 -0.62537646294 11.908679008 -15.060050964 0.70603406429
          0 0 0 0 0 0
          -0.82058352232 -9.6432933807 -9.2835347232e-07 -0.77051359415 -9.0561447144 -0.61830174923
          13.072817802 -17.782867432 -0.33620408177 2.2916333675 -14.240419388 -0.28143376112
          10.39602375 -17.465343475 -0.31082081795 9.3228654861 -14.729314804 0.65245974064
          -0.024515377358 -1.8935003281 -0.033743724227 0.0075778765604 -9.2399787903 0.66527533531
          0.05181819573 -1.7264760733 0.13292646408 -0.76106035709 -9.1006183624 0.045888587832
          4.4804315567 -14.306900024 0.27464568615 -0.4673152864 -6.1925773621 0.27042526007
          7.7776613235 -17.163911819 -0.57267928123 1.6543722153 -11.572875977 0.55313080549
          0.21738027036 -9.5677747726 0.70759361982 0 0 0
          -0.11995947361 -3.9685251713 -0.12580141425 13.078309059 -17.79429245 -2.7237368272e-07
          -0.027608629316 -1.9010365009 1.4206047183e-07 2.3017268181 -14.251027107 -7.9471089975e-07
          7.7912502289 -17.193767548 -0.28400877118 6.8565483093 -14.459532738 0.59433609247
          10.401679993 -17.476037979 -4.174292485e-07 -0.089050531387 -3.5677702427 0.30800104141
          -0.59838294983 -10.579634666 1.9091226932e-05 -0.15547934175 -4.0428819656 -0.075651958585
          0.49850544333 -11.821599007 0.32583853602 -0.83820539713 -9.6530685425 0.39762181044
          -0.43422332406 -12.312346458 -0.78420704603 7.7957983017 -17.201351166 -5.6285779237e-07
          -0.15448381007 -4.0481123924 8.7103535407e-07 -0.37474414706 -12.291195869 -0.38584536314
          5.223233223 -16.979719162 -0.53309726715 0 0 0
          -0.33284008503 -6.5074858665 -0.17403772473 13.072817802 -17.782865524 0.33620351553
          -0.024514960125 -1.8935002089 0.033744063228 2.2916331291 -14.240419388 0.2814321816
          5.2329320908 -16.991102219 -0.26715868711 4.4725766182 -14.290063858 0.54610282183
          10.39602375 -17.465343475 0.31081998348 0.96372306347 -14.490533829 -0.6832228899
          -0.30746302009 -15.419524193 -0.1068225652 -0.43000906706 -6.0448260307 0.20698586106
          -0.31229117513 -6.6593093872 -0.078387394547 -0.76103454828 -9.1006889343 -0.045868776739
          1.0017333031 -14.459827423 -0.33050853014 -0.75332528353 -15.520405769 -0.16082035005
          -0.33560857177 -12.313386917 -1.0651018556e-06 0.46160566807 -11.842177391 0.67703825235
          7.791249752 -17.193767548 0.28400763869 -0.86338728666 -9.7354898453 0.80080503225
          5.2357287407 -16.995708466 -7.1550113034e-07 -0.15547965467 -4.042883873 0.075654029846
          -0.34948566556 -6.7429113388 4.4730950322e-06 1.0367203951 -14.475597382 -9.6874020983e-07
          -0.88596463203 -9.0729427338 1.0442884559e-05 -0.60835814476 -9.9216089249 -0.079567037523
          2.8916912079 -16.923622131 -0.55642002821 13.055319786 -17.747743607 0.67435848713
          0 0 0 -0.37474420667 -12.291195869 0.38584324718
          8.9913970442e-05 -1.8498176336 0.06554941088 -0.5505849123 -9.8460445404 -0.077958710492
          2.2806246281 -14.249232292 0.56446546316 10.379317284 -17.429351807 0.62537562847
          2.906914711 -16.90728569 -0.27795478702 14.163582802 -20.498048782 -0.65609961748
          0 0 0 -0.77048450708 -9.0562324524 0.6182897687
          14.174273491 -20.532087326 -0.32698389888 -0.06130931899 -1.9472682476 0.010189847089
          11.403091431 -20.186304092 -0.608474195 5.2329320908 -16.991102219 0.2671572566
          0 0 0 -0.31229251623 -6.6593198776 0.078394196928
          11.413568497 -20.220539093 -0.30257728696 -0.064344264567 -1.9962433577 0.002150866203
          1.0017331839 -14.459826469 0.33050659299 -0.75332331657 -15.520414352 0.1608210206
          7.7776608467 -17.163909912 0.57267814875 -0.18797428906 -9.8806972504 7.7869854067e-06
          2.9160242081 -16.913864136 -8.7895392653e-07 -0.11995927244 -3.9685280323 0.12580351532
          0.00012827762112 -14.895822525 -0.75351148844 -0.16471010447 -4.1603784561 -0.0041668545455
          8.6841602325 -19.91897583 -0.55830210447 -1.335021615 -12.776461601 -0.77901983261
          14.178151131 -20.542938232 -3.6880342691e-07 0 0 0
          0.044676728547 -14.866392136 -0.37413918972 11.417424202 -20.23056221 -5.0805823548e-07
          -0.063554771245 -2.0073561668 7.5816308254e-07 8.6940574646 -19.947288513 -0.27710127831
          -0.16383449733 -4.2407021523 -0.0040277671069 -1.3329432011 -12.744417191 -0.37221193314
          -0.43422347307 -12.312346458 0.78420495987 0.075879119337 -14.86994648 -1.1570220977e-06
          -0.30088609457 -14.163949966 -0.15315029025 -0.55058532953 -9.8460664749 0.077970482409
          1.4994982481 -17.140901566 -0.67943060398 8.697763443 -19.954534531 -6.4732830651e-07
          5.2232327461 -16.979719162 0.53309583664 2.9069144726 -16.907283783 0.27795302868
          -1.3489912748 -12.739048004 -1.2848754523e-06 -0.16508448124 -4.2686405182 2.0132363261e-06
          -0.33284267783 -6.5075011253 0.17404150963 14.174273491 -20.532087326 0.32698318362
          5.9908418655 -19.71449852 -0.52081537247 -0.33402144909 -14.444685936 -0.037947580218
          -0.31314632297 -6.8040595055 0.0057084173895 1.5343536139 -17.10669899 -0.3298830092
          0.96372276545 -14.490533829 0.68322098255 -0.30746209621 -15.419531822 0.10681937635
          0 0 0 -0.28056016564 -6.8848176003 -0.008641869761
          11.413568497 -20.220539093 0.30257627368 -0.064344748855 -1.9962437153 -0.0021494482644
          6.0006422997 -19.726890564 -0.26047891378 -0.27519404888 -12.021392822 1.6131534721e-06
          1.5629422665 -17.115076065 -1.0536823538e-06 0.044676721096 -14.866392136 0.37413689494
          6.0039758682 -19.731491089 -7.9331618963e-07 -0.24041418731 -6.9031057358 3.5138966723e-06
          8.6940574646 -19.947288513 0.27709999681 -0.16383586824 -4.2407045364 0.0040314812213
          -1.3329433203 -12.744417191 0.37220937014 -0.60836029053 -9.9216432571 0.079566501081
          2.891690731 -16.923622131 0.55641829967 3.5116546154 -19.623785019 -0.54023212194
          14.163581848 -20.498048782 0.65609890223 0 0 0
          -0.43986862898 -10.026273727 0.023911088705 -0.061309397221 -1.9472688437 -0.010188588873
          11.403090477 -20.186304092 0.60847318172 -0.33401826024 -14.444692612 0.037946116179
          1.5343534946 -17.106697083 0.32988092303 3.5289127827 -19.608030319 -0.26977905631
          -0.88818901777 -15.359762192 -0.79944127798 -0.40230455995 -10.057043076 0.0058763083071
          -0.28056189418 -6.8848237991 0.0086481291801 6.0006418228 -19.726888657 0.26047733426
          -0.89366680384 -15.30570507 -0.40726968646 0.45629173517 -17.476957321 -0.73678922653
          -0.46322846413 -17.334753036 -0.079404555261 15.250636101 -23.314199448 -0.64726006985
          0 0 0 12.408028603 -23.005250931 -0.59900933504
          0.00012818716641 -14.895821571 0.75350922346 -0.16471149027 -4.1603813171 0.0041697146371
          8.6841602325 -19.91897583 0.55830085278 -0.99972987175 -17.054567337 -0.14254666865
          0.49399325252 -17.454673767 -0.36803731322 -1.3350217342 -12.776461601 0.77901732922
          15.256437302 -23.348855972 -0.32265228033 0 0 0
          -0.31180468202 -9.9413003922 3.672587809e-06 3.5379242897 -19.613546371 -9.5056736882e-07
          -0.11541259289 -1.9779450893 0.07792828232 12.413991928 -23.039705276 -0.29816526175
          -0.091804489493 -2.0234344006 0.031885068864 -0.90043920279 -15.280880928 -1.3467252984e-06
          9.5852279663 -22.733940125 -0.54934680462 -0.79400634766 -17.009532928 -1.4082738744e-06
          0.52118706703 -17.460262299 -1.2269435956e-06 15.25903511 -23.359844208 -4.7065469744e-07
          0 0 0 -0.20824718475 -4.2002620697 0.10355657339
          9.5921859741 -22.763221741 -0.27298247814 12.416459084 -23.049934387 -5.9981982758e-07
          -0.30088335276 -14.163955688 0.15314729512 1.4994978905 -17.140901566 0.67942851782
          -0.090059056878 -2.036469698 8.6378969399e-07 -0.18628981709 -4.267885685 0.051947683096
          5.9908413887 -19.71449852 0.52081376314 -0.31314909458 -6.8040680885 -0.0057044397108
          -0.53436875343 -13.790115356 0.28471717238 2.064842701 -19.799129486 -0.66773790121
          -0.40230435133 -10.057050705 -0.0058703757823 3.5289125443 -19.608030319 0.26977714896
          -0.59702515602 -13.622764587 -0.020831039175 2.0966646671 -19.761247635 -0.32360717654
          -0.89366680384 -15.30570507 0.40726700425 9.5950984955 -22.771141052 -7.2857267241e-07
          -0.1748496294 -4.2885084152 1.7170577848e-06 6.7756662369 -22.511781693 -0.5105085969
          -0.99972832203 -17.05456543 0.14254425466 0.49399325252 -17.454673767 0.36803486943
          15.256437302 -23.348854065 0.32265132666 0 0 0
          -0.25086039305 -6.7830066681 0.11922843754 6.7843136787 -22.528154373 -0.2550341785
          12.413991928 -23.039705276 0.29816406965 -0.23415143788 -6.8602423668 0.059530142695
          -0.674726367 -13.398903847 1.1635080455e-06 2.1200816631 -19.763727188 -1.1224772152e-06
          -0.091804966331 -2.0234348774 -0.031883500516 9.5921859741 -22.763221741 0.27298101783
          6.7874660492 -22.533903122 -8.6388115506e-07 -0.2199677527 -6.8708500862 2.2869169243e-06
          3.5116541386 -19.623785019 0.5402302146 -0.45021736622 -17.892696381 -0.79438227415
          -0.18629074097 -4.2678871155 -0.051944479346 -0.43986922503 -10.026285172 -0.02390819788
          -1.59082973 -15.784822464 -0.78592067957 -0.41454422474 -17.879177094 -0.39679729939
          -0.88818901777 -15.359761238 0.79943859577 -0.59731477499 -17.10975647 -0.29199454188
          -0.59702402353 -13.622768402 0.020832886919 2.0966644287 -19.761247635 0.32360494137
          0.45629164577 -17.476957321 0.73678684235 -0.46322774887 -17.334751129 0.079402051866
          -0.17950597405 -9.8910217285 0.13011915982 4.1618776321 -22.383228302 -0.52193230391
          15.250635147 -23.314199448 0.64725917578 0 0 0
          12.408028603 -23.005250931 0.59900814295 -0.18027251959 -9.9281806946 0.045698031783
          -0.39335796237 -17.889047623 -1.3962655885e-06 -0.12686546147 -16.802438736 0.33403280377
          0.96103942394 -20.07623291 -0.72323232889 4.1797795296 -22.372615814 -0.25998964906
          -0.1154127568 -1.9779456854 -0.077927038074 -0.61203485727 -17.264450073 -1.812074629e-06
          6.7843136787 -22.528152466 0.25503244996 -0.23415227234 -6.8602452278 -0.059525992721
          0.98842477798 -20.043416977 -0.35812351108 -0.87548166513 -17.212745667 0.3508361578
          9.5852279663 -22.733940125 0.54934537411 -0.17798145115 -9.9292755127 1.8116977571e-06
          4.1887402534 -22.378698349 -1.0101346106e-06 -0.20824813843 -4.2002639771 -0.10355409235
          1.0047914982 -20.036809921 -1.2842865544e-06 16.328285217 -26.201482773 -0.64470207691
          0 0 0 -1.4057599306 -16.79778862 -2.043997938e-06
          16.330875397 -26.237829208 -0.32152947783 0 0 0
          -0.41454416513 -17.879177094 0.39679452777 13.403262138 -25.893388748 -0.59452486038
          -0.5343682766 -13.790121078 -0.28471696377 2.0648424625 -19.799127579 0.66773569584
          -0.16344577074 -1.9471766949 0.13631980121 -0.59731316566 -17.109758377 0.29199054837
          13.406177521 -25.929227829 -0.29628840089 -0.11601298302 -1.9858444929 0.057264041156
          6.7756662369 -22.511779785 0.51050686836 16.332612991 -26.249403 -5.7843300283e-07
          -0.1802727133 -9.9281835556 -0.045694723725 10.484788895 -25.618154526 -0.54403173923
          -0.24854101241 -4.0882582664 0.19779269397 4.1797795296 -22.372615814 0.2599876225
          0 0 0 2.6876699924 -22.48866272 -0.65119892359
          -0.021311212331 -13.473193169 0.053034096956 -0.25086176395 -6.7830104828 -0.11922547966
          -0.20762260258 -4.1516804695 0.10187584162 10.489644051 -25.649841309 -0.27063450217
          13.407629967 -25.940107346 -6.9297385608e-07 0.98842477798 -20.043416977 0.35812094808
          -0.064324274659 -13.536779404 0.031831204891 2.7193527222 -22.450742722 -0.31471839547
          -0.87548208237 -17.212745667 -0.35084041953 -0.1114737317 -1.9967644215 6.2842269699e-07
          -1.1139119864 -18.442443848 -0.84937512875 10.491851807 -25.659021378 -8.0671821934e-07
          -0.45021727681 -17.892696381 0.79437953234 -0.19442227483 -4.1690692902 1.0817708471e-06
          -0.066433310509 -13.577158928 3.3841268987e-07 -1.080630064 -18.423877716 -0.40033325553
          2.7399213314 -22.450462341 -1.1772552853e-06 -1.5908298492 -15.78482151 0.7859171629
          16.330875397 -26.237829208 0.32152831554 7.5727906227 -25.382539749 -0.50190794468
          0.58912861347 -17.953121185 -0.42753872275 0 0 0
          -0.23745681345 -6.5414323807 0.24581001699 0.052986867726 -20.456169128 -0.77141851187
          -0.21624018252 -6.6208233833 0.12474992126 7.580344677 -25.404174805 -0.25089251995
          13.406176567 -25.929227829 0.29628700018 -1.3713217974 -17.29127121 -0.1773622334
          0.082247175276 -20.425073624 -0.37563708425 -0.1160132736 -1.9858448505 -0.057262919843
          -0.17950731516 -9.8910255432 -0.13011719286 4.1618771553 -22.383226395 0.52193027735
          -1.07143116 -18.426563263 -1.5841546883e-06 -0.12686517835 -16.802436829 -0.33403673768
          0.96103936434 -20.07623291 0.7232298255 7.5834417343 -25.411594391 -9.2728197387e-07
          10.489644051 -25.649841309 0.27063289285 -1.5576375723 -17.593040466 -1.6301277128e-06
          -0.20762307942 -4.1516814232 -0.10187382996 -0.20856122673 -6.6418223381 1.1699077049e-06
          -0.064324066043 -13.536781311 -0.031831417233 2.7193527222 -22.450742722 0.31471604109
          0.092360705137 -20.414089203 -1.4393175434e-06 1.5297205448 -22.665712357 -0.70222723484
          -0.062099456787 -16.73797226 -0.095898941159 1.5526490211 -22.631458282 -0.34529772401
          -0.11820747703 -16.750921249 -0.095352753997 16.328285217 -26.201482773 0.64470088482
          0 0 0 -1.0806299448 -18.423877716 0.40033012629
          -0.071236424148 -9.3775558472 0.23228244483 4.847474575 -25.221086502 -0.50248110294
          -0.093526959419 -9.4917345047 0.11671171337 13.403262138 -25.893388748 0.59452348948
          -0.16344584525 -1.9471769333 -0.13631893694 4.8655638695 -25.216960907 -0.25070729852
          7.5803442001 -25.404174805 0.25089067221 -1.3713219166 -17.29127121 0.17735920846
          -0.21624068916 -6.6208248138 -0.1247477755 0.082247279584 -20.425073624 0.37563422322
          1.5610551834 -22.617414474 -1.3311114344e-06 -0.059748034924 -16.715559006 -1.2247573977e-06
          10.484788895 -25.618152618 0.54403012991 -0.24854151905 -4.0882592201 -0.19779112935
          2.687669754 -22.488660812 0.65119659901 -0.089063428342 -9.5122117996 6.5171525421e-07
          -0.021311795339 -13.473195076 -0.053035046905 4.8747754097 -25.223279953 -1.0573704685e-06
          17.404150009 -29.165710449 -0.64610350132 0 0 0
          -1.1139117479 -18.44244194 0.84937208891 1.5526490211 -22.631458282 0.3452950716
          0 0 0 14.39375782 -28.857446671 -0.59308999777
          -0.20157852769 -20.826635361 -0.49805945158 -0.11820774525 -16.750923157 0.095350824296
          -0.1918272078 -1.8640885353 0.18313756585 -0.64924860001 -20.966335297 -0.7976333499
          17.404827118 -29.204524994 -0.32245123386 7.5727901459 -25.382539749 0.50190609694
          14.395042419 -28.895557404 -0.29583960772 -0.12746332586 -1.8915013075 0.078932926059
          0.58912944794 -17.953121185 0.42753535509 -0.78559070826 -20.090251923 -0.3611638546
          -0.23745781183 -6.5414338112 -0.24580845237 3.397244215 -25.232778549 -0.62724632025
          -0.093527302146 -9.491736412 -0.11671064794 0.052987001836 -20.456169128 0.77141571045
          0.36128103733 -13.029015541 0.084019050002 4.8655633926 -25.216960907 0.25070515275
          -0.65587800741 -20.916269302 -0.3867045939 0.35998278856 -13.03088665 -0.047276608646
          3.4302339554 -25.197137833 -0.30161392689 11.383960724 -28.58065033 -0.54061758518
          17.406070709 -29.217006683 -6.9257305313e-07 -0.27290681005 -3.8612573147 0.28731304407
          0 0 0 11.387328148 -28.61488533 -0.26924216747
          -0.20377452672 -3.9130778313 0.149272874 14.395998001 -28.907419205 -7.8784978541e-07
          0.59972912073 -22.94519043 -0.72766453028 -1.299095273 -19.112991333 -1.8325988549e-06
          -0.68572849035 -20.883497238 -1.5751543287e-06 -0.7813038826 -18.678853989 -0.63448923826
          -0.11986649036 -1.8985357285 3.160497215e-07 0.61574530602 -22.909486771 -0.35468757153
          3.4473850727 -25.194360733 -1.2182468936e-06 -0.19227816164 -18.729560852 -0.010781520046
          0.46302187443 -13.055000305 -9.0014458465e-07 1.5297205448 -22.665712357 0.70222461224
          11.388654709 -28.625047684 -8.8226732942e-07 -0.062100067735 -16.73797226 0.095895156264
          -0.18598395586 -3.925886631 4.3753269097e-07 8.3770771027 -28.336149216 -0.49510625005
          17.404827118 -29.204524994 0.32244986296 0.60827696323 -22.885168076 -1.4684055714e-06
          -0.24647603929 -6.1261200905 0.37723311782 -0.071237660944 -9.3775568008 -0.2322819382
          -0.31694173813 -18.302682877 5.3368472663e-07 4.8474740982 -25.221084595 0.50247895718
          0 0 0 8.3845825195 -28.36277771 -0.24661007524
          -0.20130749047 -6.2072639465 0.1952637881 14.395041466 -28.895557404 0.29583802819
          -0.78558939695 -20.09025383 0.36116033792 -0.65587776899 -20.916269302 0.38670143485
          -0.12746347487 -1.8915015459 -0.078932367265 3.430233717 -25.197137833 0.3016114831
          0.3599832356 -13.030887604 0.047275360674 11.387328148 -28.61488533 0.26924037933
          8.3882226944 -28.371675491 -9.8246118796e-07 2.2009649277 -25.279836655 -0.67067140341
          -0.4271389544 -17.708236694 -0.31863516569 -0.18814304471 -6.2241024971 2.6644443096e-07
          -0.20377476513 -3.9130783081 -0.14927206933 0.43924406171 -18.033073425 -0.35817202926
          0.61574542522 -22.909486771 0.3546846509 2.2200872898 -25.24874115 -0.32813689113
          -0.19228035212 -18.729560852 0.01077742409 5.5634236336 -28.138971329 -0.48601722717