<?xml version="1.0"?>
<VTKFile type="UnstructuredGrid" version="0.1" byte_order="LittleEndian" header_type="UInt32" compressor="vtkZLibDataCompressor">
  <UnstructuredGrid>
    <Piece NumberOfPoints="6405" NumberOfCells="4800">
      <PointData>
        <DataArray type="Float32" Name="DISPLACEMENT" NumberOfComponents="3" ComponentName0="X-DISPLACEMENT" ComponentName1="Y-DISPLACEMENT" ComponentName2="Z-DISPLACEMENT" format="ascii" RangeMin="0" RangeMax="255.11546541">
          0 0 0 0 0 0
          1.9977064133 -1.231905818 -0.92355030775 0 0 0
          1.2899512053 -0.73302316666 -0.71735215187 0 0 0
          1.8243546486 -1.3568567038 -0.3671130538 1.1224087477 -0.83575350046 -0.29260760546
          0 0 0 3.5788097382 -2.2512254715 -0.94506382942
          0 0 0 3.5281043053 -2.3978497982 -0.48826009035
          2.589527607 -1.8506423235 -0.79044812918 0 0 0
          0 0 0 1.8305927515 -1.399487257 -6.1465146928e-07
          0.94413995743 -0.50140440464 -0.55526888371 1.1179167032 -0.85656291246 -2.9700288451e-07
          2.5349009037 -1.9676097631 -0.40372672677 0.81130570173 -0.59648436308 -0.22487486899
          3.4882776737 -2.4392588139 -1.4868409153e-06 1.8949272633 -1.5135099888 -0.62153279781
          0 0 0 2.5004456043 -2.0063877106 -8.7574170493e-07
          1.8376795053 -1.6224249601 -0.31896910071 0 0 0
          5.013525486 -3.5491225719 -0.88602113724 0 0 0
          0.8051302433 -0.61421692371 6.7018170569e-08 0 0 0
          0 0 0 1.8243544102 -1.3568571806 0.3671118021
          3.8113045692 -3.1644918919 -0.75473743677 5.028796196 -3.6548583508 -0.45222431421
          0.68590581417 -0.33411192894 -0.37922647595 1.1224082708 -0.83575415611 0.29260694981
          3.8240265846 -3.2644000053 -0.38470938802 0.59979051352 -0.43850359321 -0.1581826061
          1.8073339462 -1.6516885757 -1.6348813858e-07 3.52810359 -2.3978509903 0.48825702071
          0 0 0 0 0 0
          1.3087794781 -1.2929714918 -0.43715718389 2.8565502167 -2.8610823154 -0.62464874983
          5.0162153244 -3.6936304569 -2.6406894449e-06 2.5348997116 -1.9676110744 0.40372487903
          2.8491375446 -2.9561190605 -0.31702727079 0.8113052845 -0.59648525715 0.22487494349
          3.815320015 -3.2980611324 -1.7410399096e-06 1.2496187687 -1.3993542194 -0.22515891492
          0.60270017385 -0.45297193527 6.2835579229e-07 0 0 0
          6.346157074 -5.0120840073 -0.79477882385 0 0 0
          4.9663996696 -4.6610965729 -0.69674295187 1.8376785517 -1.6224265099 0.31896868348
          6.3816809654 -5.0893435478 -0.402597785 1.9977054596 -1.2319067717 0.92354887724
          0 0 0 0 0 0
          1.2278776169 -1.4256366491 7.0220158932e-07 2.8396091461 -2.9854066372 -7.4176301723e-07
          0.25520080328 -0.2454521507 -0.16772378981 4.9982790947 -4.7379403114 -0.35139712691
          1.2899500132 -0.73302453756 0.7173512578 1.9968873262 -2.6622290611 -0.49061557651
          0 0 0 5.0287947655 -3.6548600197 0.45221891999
          0.20745643973 -0.37570428848 -0.085769623518 1.9674328566 -2.7467811108 -0.25042414665
          3.8240249157 -3.2644019127 0.38470581174 0.59979021549 -0.43850463629 0.15818376839
          3.7934582233 -4.3823375702 -0.59955233335 0.4818251729 -1.1635608673 -0.26336479187
          6.3827228546 -5.1167531013 -4.054094461e-06 3.5788078308 -2.2512278557 0.94506055117
          0 0 0 0 0 0
          3.8076560497 -4.4571676254 -0.30234542489 2.5895252228 -1.8506449461 0.79044604301
          5.0031175613 -4.7648844719 -2.9081970752e-06 0.41883987188 -1.2657585144 -0.14169129729
          0.94413918257 -0.50140619278 0.5552687645 0.22146460414 -0.40868258476 1.4420431853e-06
          1.9567514658 -2.7736890316 4.2125003574e-07 2.8491361141 -2.9561212063 0.31702572107
          1.2496179342 -1.3993560076 0.22516024113 3.8085327148 -4.4829206467 -1.6567270222e-06
          1.8949254751 -1.5135130882 0.62153220177 0.40703544021 -1.2928401232 1.6786638071e-06
          2.70814991 -4.1931285858 -0.50893563032 6.3816790581 -5.089345932 0.40258955956
          5.0135221481 -3.5491261482 0.8860154748 0 0 0
          7.5704450607 -6.5994467735 -0.7201783061 0 0 0
          0 0 0 0.97271180153 -2.5147025585 -0.40839499235
          2.7073707581 -4.2631177902 -0.25658214092 7.604801178 -6.6573066711 -0.36216568947
          6.0507287979 -6.2733416557 -0.64492619038 4.9982767105 -4.7379431725 0.35139119625
          0.072804540396 -0.40697535872 -0.20195290446 0 0 0
          3.811300993 -3.164495945 0.75473362207 0.68590563536 -0.33411407471 0.37922742963
          0.92969036102 -2.5835573673 -0.19613480568 0.2074559778 -0.3757057488 0.085772305727
          -0.0080918530002 -0.4524281621 -0.068338178098 1.9674315453 -2.7467837334 0.25042492151
          6.0824179649 -6.3337469101 -0.32296481729 3.8076536655 -4.4571704865 0.30234205723
          2.7053613663 -4.2889900208 -2.3697039353e-07 7.6110906601 -6.6780533791 -5.7384700085e-06
          0.2799089849 -1.4352054596 -0.36200147867 0.41883856058 -1.2657604218 0.14169457555
          0 0 0 4.6979813576 -6.0085778236 -0.56757372618
          1.3087781668 -1.2929749489 0.43715825677 2.8565473557 -2.8610868454 0.62464696169
          0.91660642624 -2.6106991768 1.7298781358e-06 6.0906043053 -6.3548960686 -4.3948466555e-06
          0.023223267868 -0.51938617229 3.0575126857e-06 0.26243644953 -1.432780385 -0.14070667326
          4.7186675072 -6.0695085526 -0.28463119268 6.3461523056 -5.0120887756 0.79477030039
          0 0 0 1.6871622801 -4.0521144867 -0.43506807089
          4.9663949013 -4.6611013412 0.69673675299 0.28066724539 -1.4720903635 3.7217721456e-06
          1.6673167944 -4.1195192337 -0.20976597071 4.7238273621 -6.0906915665 -2.9262687349e-06
          0.25520044565 -0.24545495212 0.16772608459 2.7073686123 -4.2631206512 0.25658160448
          3.4554755688 -5.8049197197 -0.48980775476 7.604798317 -6.6573095322 0.36215412617
          0.48148679733 -2.5557043552 -0.34122166038 1.9968848228 -2.6622343063 0.49061611295
          0 0 0 0.92968851328 -2.5835599899 0.19613824785
          3.4645349979 -5.8670930862 -0.24608030915 -0.0080937184393 -0.45242974162 0.068343773484
          0.53160667419 -2.6502037048 -0.15444470942 6.0824151039 -6.3337497711 0.32295593619
          3.7934539318 -4.3823432922 0.59954875708 0.48182335496 -1.1635648012 0.2633677423
          8.7050704956 -8.2726898193 -0.66775488853 0 0 0
          1.6434879303 -4.135825634 1.5247819647e-06 7.0704283714 -7.9668040276 -0.60433471203
          8.7318592072 -8.3208465576 -0.33458274603 0 0 0
          -0.29369729757 -0.60049766302 -0.20826712251 7.0957078934 -8.0177688599 -0.30152276158
          3.4637868404 -5.8880777359 -1.2592773828e-06 -0.29869487882 -0.60749709606 -0.1131477952
          0.26243397593 -1.4327820539 0.14071400464 0.55587768555 -2.7102916241 3.8904199755e-06
          4.7186646461 -6.0695118904 0.28462523222 5.5662293434 -7.7185997963 -0.53696393967
          -0.25698959827 -1.558475852 -0.25999653339 8.7388343811 -8.3378324509 -7.7146814874e-06
          0 0 0 -0.24021288753 -1.6008665562 -0.14965383708
          5.5853090286 -7.7705655098 -0.26742625237 7.1031394005 -8.0352153778 -6.2199746935e-06
          0.011033044197 -0.70692420006 1.2128883782e-06 2.7081458569 -4.1931347847 0.50893497467
          2.306599617 -5.6388397217 -0.39781796932 7.5704393387 -6.5994520187 0.72016638517
          0 0 0 0.77151656151 -4.0007033348 -0.24836295843
          1.667314887 -4.1195230484 0.20976895094 0.9727088809 -2.5147080421 0.40839838982
          6.050722599 -6.2733473778 0.64491707087 0.072803497314 -0.40697917342 0.20195791125
          0.7731975317 -4.0937976837 -0.14679066837 2.3043215275 -5.7073750496 -0.20304587483
          3.4645321369 -5.8670969009 0.24607771635 0.53160464764 -2.6502068043 0.15445242822
          5.5900850296 -7.7879862785 -4.564446499e-06 -0.23100075126 -1.611659646 6.4761807153e-06
          4.1770682335 -7.5440092087 -0.4691131413 -0.074475601315 -2.7739539146 -0.26697567105
          0.27990630269 -1.4352104664 0.36200881004 8.7318563461 -8.3208494186 0.33456721902
          4.6979751587 -6.0085840225 0.56756752729 0 0 0
          2.3020005226 -5.7261214256 7.0543325137e-07 0.77010595798 -4.1010694504 3.9059436858e-06
          4.1882424355 -7.5929808617 -0.23201477528 7.0957040787 -8.0177717209 0.30151024461
          -0.10081336647 -2.8392469883 -0.10751101375 -0.29866632819 -0.60751640797 0.11315003783
          1.6871589422 -4.0521221161 0.43507087231 4.1898217201 -7.6076426506 -2.7512796805e-06
          5.5853052139 -7.7705688477 0.26741701365 -0.24021038413 -1.6008732319 0.14966697991
          -0.08798161149 -2.8740880489 6.9678294494e-06 9.7773351669 -10.017270088 -0.6351402998
          0 0 0 9.7958898544 -10.062498093 -0.31753137708
          3.4554700851 -5.8049268723 0.48980492353 8.037437439 -9.7245359421 -0.57477128506
          0.48148363829 -2.555711031 0.341229707 0.99526804686 -5.5093193054 -0.276458323
          -0.017615647987 -0.78694868088 -0.050381273031 0.77319514751 -4.0938024521 0.14679831266
          2.3043186665 -5.7073793411 0.20304721594 0 0 0
          8.0555534363 -9.7718067169 -0.28597658873 0.98713171482 -5.5879836082 -0.15059010684
          -0.034712765366 -0.8424654603 -0.026774786413 2.8800621033 -7.4493660927 -0.39924290776
          0.1396561414 -4.2293305397 -0.31804853678 8.7050628662 -8.2726955414 0.6677390933
          0 0 0 7.070420742 -7.9668102264 0.60432195663
          9.80194664 -10.078071594 -1.0004592696e-05 0.090569637716 -4.2399921417 -0.12672436237
          2.875184536 -7.4836068153 -0.19896653295 -0.29367247224 -0.60050839186 0.20826393366
          6.3862347603 -9.4938926697 -0.50953167677 -0.12926517427 -1.7187126875 -0.10298981518
          0 0 0 4.1882386208 -7.5929846764 0.23200920224
          -0.10081528872 -2.8392503262 0.10752598196 8.0611562729 -9.7871484756 -8.3967479441e-06
          1.0044475794 -5.6123356819 2.7819064599e-06 6.4004449844 -9.5394582748 -0.2519171536
          -0.14468035102 -1.7943693399 -0.04733845219 -0.072552628815 -0.85828953981 4.1684334064e-06
          5.566221714 -7.7186069489 0.53695440292 -0.25698506832 -1.5584903955 0.26001060009
          2.8749220371 -7.4934811592 -7.9428485833e-07 0.12105089426 -4.2826032639 6.5931676545e-06
          2.3065941334 -5.6388478279 0.3978189528 6.4022312164 -9.5520792007 -6.5756707954e-06
          -0.12889803946 -1.8377623558 7.5120033216e-06 0.77151232958 -4.0007123947 0.24836996198
          9.7958850861 -10.062500954 0.31751129031 4.8394098282 -9.3552742004 -0.44456085563
          0 0 0 -0.26301443577 -2.9239470959 -0.077596537769
          4.8469052315 -9.3943271637 -0.2166736871 8.0555486679 -9.7718105316 0.28595972061
          -0.034714609385 -0.84247082472 0.026780562475 0.98712807894 -5.5879874229 0.15059570968
          -0.26981067657 -3.0040192604 -0.099197328091 4.1770610809 -7.5440173149 0.46910732985
          1.491900444 -7.3668813705 -0.39063575864 2.8751809597 -7.4836115837 0.19896495342
          -0.074479833245 -2.7739613056 0.26699057221 0.090567655861 -4.2399978638 0.12673737109
          0.41540026665 -5.8082909584 -0.42016506195 1.4543218613 -7.3807578087 -0.17438702285
          4.842335701 -9.4061193466 -4.5394917834e-06 6.4004402161 -9.5394620895 0.25190386176
          -0.1446775794 -1.794377923 0.047352224588 0.39123955369 -5.7722578049 -0.14815570414
          -0.21369659901 -3.012909174 1.0461596503e-05 10.814671516 -11.835371971 -0.61796176434
          0 0 0 -0.035540122539 -0.88732272387 0.00094188225921
          1.4325107336 -7.3847303391 1.4214399471e-06 3.4022073746 -9.3103923798 -0.40481230617
          8.9696626663 -11.547535896 -0.55452954769 9.7773265839 -10.01727581 0.63512009382
          0 0 0 0 0 0
          0.3941232264 -5.795897007 5.2631976359e-06 -0.55337208509 -4.474676609 -0.35583591461
          10.826044083 -11.881836891 -0.30838540196 3.4041061401 -9.335395813 -0.19586905837
          8.9813194275 -11.595288277 -0.27577584982 8.0374288559 -9.7245416641 0.57475423813
          -0.045568719506 -0.92136597633 0.0028890657704 0.99526143074 -5.5093278885 0.27646377683
          -0.017613593489 -0.78695601225 0.050385855138 -0.57275599241 -4.430077076 -0.19159078598
          4.8468999863 -9.3943309784 0.21666432917 -0.26981398463 -3.0040237904 0.099216230214
          7.1688117981 -11.316361427 -0.48653829098 2.8800549507 -7.4493756294 0.39924126863
          0.13965345919 -4.2293429375 0.31806123257 0 0 0
          -0.11378867179 -1.902359724 -0.015868593007 10.830569267 -11.897274971 -1.259164128e-05
          -0.042835712433 -0.93360310793 3.6430469663e-06 3.4000985622 -9.3465833664 -2.4892367492e-06
          7.1788005829 -11.359406471 -0.23906597495 6.3862257004 -9.4939002991 0.50951808691
          8.9853563309 -11.610259056 -1.0903666407e-05 -0.12925991416 -1.718723774 0.10299962014
          -0.13638742268 -4.3830451965 1.1390886357e-05 -0.12522353232 -1.9526941776 -0.0079679358751
          1.4543191195 -7.3807635307 0.17439003289 0.39123606682 -5.7722620964 0.14816652238
          0.67851555347 -7.4896383286 -0.38286060095 7.1798729897 -11.368053436 -9.0064077085e-06
          -0.12661844492 -1.9707205296 7.4470685831e-06 0.71136599779 -7.5204524994 -0.17852328718
          5.45225811 -11.186048508 -0.41350448132 0 0 0
          -0.22607629001 -3.1286408901 -0.054944571108 10.826040268 -11.881840706 0.3083601892
          -0.045568689704 -0.9213681221 -0.002882237779 3.4041011333 -9.3354005814 0.19586391747
          5.4377293587 -11.214055061 -0.20098645985 4.8393998146 -9.3552818298 0.44455102086
          8.9813146591 -11.595291138 0.27575400472 2.1421737671 -9.2926540375 -0.40162563324
          -0.39030700922 -5.9985675812 -0.40533661842 -0.2630161345 -2.9239537716 0.077611252666
          -0.22962400317 -3.1806061268 -0.02729713358 -0.57276928425 -4.430079937 0.19161362946
          2.1075177193 -9.300157547 -0.19090034068 -0.36294683814 -5.9868192673 -0.20903334022
          0.72221654654 -7.5450129509 4.3118543545e-06 1.491894722 -7.3668923378 0.39063939452
          7.1787948608 -11.359410286 0.23904782534 0.41539403796 -5.8083004951 0.42017650604
          5.4116735458 -11.212649345 -6.7748046604e-06 -0.1252245307 -1.9526978731 0.0079817660153
          -0.20963644981 -3.1769824028 1.0393155208e-05 2.0618245602 -9.29408741 -6.7344934962e-08
          -0.29257380962 -6.0194311142 8.502594028e-06 -0.26814818382 -4.5012207031 -0.066315405071
          3.9097163677 -11.147331238 -0.37011644244 10.814662933 -11.835378647 0.61793649197
          0 0 0 0.71136242151 -7.5204582214 0.17853209376
          -0.035537742078 -0.88732612133 -0.00093610771 -0.25861993432 -4.5783996582 -0.060205426067
          3.4021980762 -9.3104019165 0.40480697155 8.9696531296 -11.547542572 0.55450755358
          3.8878405094 -11.171106339 -0.17495146394 11.837460518 -13.741793633 -0.61069411039
          0 0 0 -0.55338680744 -4.4746875763 0.35585516691
          11.843449593 -13.790542603 -0.30448019505 -0.05452766642 -0.93478810787 0.031121890992
          9.8839998245 -13.453867912 -0.54378008842 5.4377217293 -11.214057922 0.20097263157
          0 0 0 -0.22962652147 -3.1806104183 0.027316931635
          9.8901100159 -13.503443718 -0.27081245184 -0.049449935555 -0.9581246376 0.014113416895
          2.1075150967 -9.3001642227 0.19090014696 -0.36295902729 -5.9868168831 0.20905077457
          7.1688008308 -11.316368103 0.48651993275 -0.30506941676 -4.5788488388 1.2520124073e-05
          3.8528807163 -11.183386803 -4.6613022278e-06 -0.11378678679 -1.9023649693 0.015880217776
          0.94097948074 -9.2738714218 -0.31666064262 -0.11621125042 -1.9880845547 0.029610378668
          7.9469051361 -13.209098816 -0.47257447243 -0.078629218042 -7.7795572281 -0.40295279026
          11.846364021 -13.806468964 -1.5341449398e-05 0 0 0
          0.94454294443 -9.3042125702 -0.1785363853 9.8926343918 -13.518971443 -1.3633665731e-05
          -0.050752401352 -0.9665697813 3.2060900139e-06 7.9534101486 -13.25588131 -0.23381087184
          -0.11703957617 -2.0226945877 0.017189595848 -0.080723166466 -7.7762069702 -0.17923413217
          0.6785082221 -7.4896497726 0.38286903501 0.95416367054 -9.3067455292 2.6154079933e-06
          -0.32858514786 -6.0060572624 -0.093373529613 -0.2586261332 -4.5784029961 0.060229204595
          2.6026217937 -11.144172668 -0.36026215553 7.9566774368 -13.268456459 -1.1847731912e-05
          5.4522452354 -11.186057091 0.41348975897 3.8878338337 -11.171111107 0.1749420166
          -0.043107073754 -7.7926840782 7.0062123996e-06 -0.11446513236 -2.0336332321 6.4587302404e-06
          -0.22607804835 -3.1286468506 0.054961625487 11.843445778 -13.790545464 0.30444955826
          6.028778553 -13.040280342 -0.40346390009 -0.32678076625 -6.1023516655 -0.059485822916
          -0.17015771568 -3.1918098927 0.026674691588 2.5981459618 -11.159095764 -0.18297199905
          2.1421670914 -9.2926654816 0.40162494779 -0.39032319188 -5.9985699654 0.40535327792
          0 0 0 -0.17627476156 -3.2375097275 0.011881571263
          9.8901052475 -13.503446579 0.27078521252 -0.049450173974 -0.95812571049 -0.014107435942
          6.0032525063 -13.066642761 -0.1984142065 -0.31893029809 -6.1421837807 1.4992854631e-05
          2.5882909298 -11.17234993 -2.3524039534e-06 0.94453889132 -9.3042182922 0.1785414964
          5.9708147049 -13.061836243 -1.0012663552e-05 -0.18143588305 -3.2530071735 9.4600927696e-06
          7.9534044266 -13.255884171 0.23378713429 -0.11704002321 -2.0226964951 -0.017177082598
          -0.080727763474 -7.7762126923 0.17924855649 -0.26815658808 -4.5012264252 0.066335529089
          3.9097044468 -11.147340775 0.37010630965 4.3433418274 -13.016962051 -0.35227948427
          11.837451935 -13.741800308 0.61066353321 0 0 0
          -0.22416256368 -4.5599632263 0.020277790725 -0.05452542007 -0.93478924036 -0.031116254628
          9.8839902878 -13.453874588 0.54375296831 -0.32680022717 -6.1023535728 0.059512909502
          2.598140955 -11.159101486 0.18296718597 4.2665214539 -13.002496719 -0.18055944145
          0.19225212932 -9.5517473221 -0.43007388711 -0.23388242722 -4.6198425293 0.012878950685
          -0.1762765646 -3.2375121117 -0.011863435619 6.0032424927 -13.066646576 0.19839428365
          0.20521594584 -9.5283708572 -0.17091053724 1.2902237177 -11.11751461 -0.3756980598
          -0.41848251224 -7.7352371216 -0.033933971077 12.854801178 -15.752544403 -0.60795110464
          0 0 0 10.79145813 -15.463951111 -0.5401661396
          0.94097131491 -9.2738828659 0.31666579843 -0.11620917171 -1.988086462 -0.029599197209
          7.9468941689 -13.209105492 0.47255071998 -0.44026181102 -7.8469619751 -0.076001524925
          1.2792317867 -11.112143517 -0.17497521639 -0.078638121486 -7.779569149 0.40296730399
          12.857316971 -15.802371025 -0.30325871706 0 0 0
          -0.23106686771 -4.642580986 1.185176734e-05 4.1551909447 -12.965198517 -7.8872990343e-06
          -0.07319124043 -0.93895941973 0.057298585773 10.794047356 -15.514420509 -0.26951417327
          -0.057915646583 -0.95915561914 0.024327408522 0.23748195171 -9.5666627884 4.6759241741e-06
          8.7314491272 -15.209623337 -0.47125512362 -0.40844795108 -7.8198442459 9.6635876616e-06
          1.2723053694 -11.106710434 7.5996773319e-08 12.858600616 -15.818614006 -1.7939581085e-05
          0 0 0 -0.12373747677 -1.9877926111 0.071842342615
          8.7327623367 -15.260592461 -0.23526395857 10.795489311 -15.530872345 -1.6300726202e-05
          -0.32861107588 -6.0060610771 0.093392603099 2.6026117802 -11.144183159 0.36025708914
          -0.057122353464 -0.96518415213 2.4735888928e-06 -0.11569666862 -2.0186238289 0.037323679775
          6.0287604332 -13.040287018 0.40344390273 -0.1701580584 -3.1918125153 -0.026658741757
          -0.28641858697 -6.1105184555 0.024643085897 3.0160088539 -13.049728394 -0.37256342173
          -0.23388780653 -4.6198458672 -0.012856371701 4.266512394 -13.002501488 0.18054389954
          -0.29482099414 -6.1814193726 0.014278742485 3.0085158348 -13.03399086 -0.18435201049
          0.20521192253 -9.5283765793 0.17092041671 8.733587265 -15.27829361 -1.4865952835e-05
          -0.11327041686 -2.0293586254 5.1213687584e-06 6.655272007 -14.992343903 -0.40620192885
          -0.44030842185 -7.8469963074 0.076032966375 1.2792286873 -11.112150192 0.17497552931
          12.857313156 -15.80237484 0.30322292447 0 0 0
          -0.16114750504 -3.1831960678 0.076726958156 6.6553926468 -15.037026405 -0.20607188344
          10.794043541 -15.514424324 0.26948168874 -0.15960377455 -3.2223594189 0.040755499154
          -0.29851451516 -6.2035508156 1.2780426005e-05 2.9983837605 -13.016336441 -5.1384113249e-06
          -0.057915627956 -0.95915597677 -0.024322703481 8.7327566147 -15.260596275 0.23523440957
          6.6538324356 -15.052513123 -1.3487450815e-05 -0.15852349997 -3.2364161015 7.5481511885e-06
          4.3433256149 -13.016972542 0.35226389766 0.46550291777 -11.295413017 -0.38314959407
          -0.11569673568 -2.0186245441 -0.037313699722 -0.22416868806 -4.559967041 -0.020258655772
          -0.5706717968 -9.7878255844 -0.34269884229 0.49581000209 -11.301013947 -0.17806904018
          0.19224311411 -9.5517587662 0.4300840497 -0.67855042219 -9.6970567703 -0.1037806049
          -0.29483243823 -6.1814293861 -0.014253960922 3.008510828 -13.033995628 0.1843418628
          1.2902164459 -11.117527008 0.37569877505 -0.41856628656 -7.7352957726 0.033966276795
          -0.18676450849 -4.5539870262 0.077749215066 4.672044754 -14.852910042 -0.35387575626
          12.854793549 -15.752552032 0.60791558027 0 0 0
          10.7914505 -15.463957787 0.5401340127 -0.18851435184 -4.5980019569 0.0417952016
          0.49290320277 -11.292989731 2.7685257464e-06 -0.37588390708 -7.8704514503 0.0017290317919
          1.8654603958 -13.067749977 -0.37797826529 4.6390252113 -14.870235443 -0.20095025003
          -0.073189109564 -0.93895924091 -0.057293962687 -0.73316216469 -9.8256235123 7.1338845373e-06
          6.6553840637 -15.037029266 0.20604515076 -0.15960462391 -3.222360611 -0.040740862489
          1.8371298313 -13.053728104 -0.17698590457 -0.38356649876 -7.9420905113 0.010314597748
          8.7314386368 -15.209630013 0.47122609615 -0.19089409709 -4.6148147583 9.2670425147e-06
          4.5695538521 -14.865509987 -1.1661237295e-05 -0.12373522669 -1.9877923727 -0.071833133698
          1.7941203117 -13.028831482 -2.362029818e-06 13.867307663 -17.87443924 -0.60631889105
          0 0 0 -0.40536278486 -7.972951889 1.3834092897e-05
          13.868485451 -17.92414856 -0.30263593793 0 0 0
          0.49580484629 -11.301020622 0.17807480693 11.696159363 -17.587425232 -0.53917557001
          -0.28643581271 -6.1105327606 -0.024620674551 3.0159990788 -13.049738884 0.37255346775
          -0.094223693013 -0.90562063456 0.08546500653 -0.67855536938 -9.6970624924 0.10379578173
          11.696336746 -17.637130737 -0.26948973536 -0.068927265704 -0.92623078823 0.035725176334
          6.6552557945 -14.992350578 0.40617614985 13.868977547 -17.940429688 -1.9943638108e-05
          -0.18851669133 -4.598004818 -0.041777256876 9.5256729126 -17.327049255 -0.47306478024
          -0.14248205721 -1.9258781672 0.11286911368 4.6390137672 -14.870238304 0.20092797279
          0 0 0 3.4469249249 -14.877776146 -0.3587487042
          -0.20379929245 -6.1222577095 0.076204434037 -0.16114680469 -3.1831963062 -0.076713740826
          -0.12626047432 -1.9562362432 0.057863648981 9.525135994 -17.37890625 -0.23618112504
          11.696174622 -17.653455734 -1.8496244593e-05 1.8371269703 -13.053732872 0.17698134482
          -0.20727162063 -6.1673002243 0.040953025222 3.4618031979 -14.897322655 -0.15645542741
          -0.38357302547 -7.9421043396 -0.010290249251 -0.067554481328 -0.93175840378 1.6492099348e-06
          -0.2847674191 -11.568084717 -0.37399724126 9.5244855881 -17.39689064 -1.7445121557e-05
          0.46549299359 -11.295423508 0.38315328956 -0.1205040887 -1.9659956694 3.5037010093e-06
          -0.21122705936 -6.1848578453 1.023511868e-05 -0.36857035756 -11.488566399 -0.15447585285
          3.4664468765 -14.924643517 -7.9164783529e-06 -0.5706820488 -9.7878370285 0.34271395206
          13.86848259 -17.924152374 0.30259618163 7.3376250267 -17.089317322 -0.40244588256
          -0.51125991344 -9.7093782425 0.053328722715 0 0 0
          -0.16419960558 -3.096709013 0.12473664433 0.72373616695 -13.042852402 -0.31862983108
          -0.15754631162 -3.1334030628 0.064651124179 7.3451189995 -17.14607811 -0.2043633461
          11.696333885 -17.637134552 0.2694529295 -0.50570571423 -9.7774114609 -0.082203902304
          0.72163420916 -13.07348156 -0.14945828915 -0.06892708689 -0.92623078823 -0.035721994936
          -0.18676684797 -4.5539894104 -0.077732920647 4.6720271111 -14.852918625 0.35385426879
          -0.69299757481 -11.187240601 4.7644807637e-06 -0.37589201331 -7.8704676628 -0.0017117480747
          1.8654520512 -13.067759514 0.3779733777 7.3515839577 -17.169635773 -1.6468631657e-05
          9.5251321793 -17.378910065 0.23614656925 -0.41403710842 -9.8105840683 9.1292995421e-06
          -0.1262601614 -1.9562363625 -0.057856731117 -0.15496997535 -3.1454350948 5.1930596783e-06
          -0.20727394521 -6.1673049927 -0.040933400393 3.4618000984 -14.897327423 0.15643978119
          0.71323508024 -13.09457016 1.1260740251e-07 2.2940852642 -14.902926445 -0.33850693703
          -0.21984829009 -7.864256382 0.072570607066 2.2730374336 -14.886426926 -0.15674003959
          -0.21974770725 -7.9146237373 0.039201997221 13.867300987 -17.874446869 0.60627961159
          0 0 0 -0.36857447028 -11.488574028 0.15448494256
          -0.16101108491 -4.4510216713 0.12687915564 5.1460380554 -16.882740021 -0.3294813633
          -0.16121993959 -4.4903478622 0.064974330366 11.696152687 -17.587430954 0.53913933039
          -0.094221889973 -0.90561980009 -0.085461683571 5.1644182205 -16.930358887 -0.17596265674
          7.3451132774 -17.146081924 0.20433087647 -0.50571572781 -9.7774162292 0.082221351564
          -0.15754619241 -3.1334035397 -0.064640969038 0.72162735462 -13.073484421 0.14945843816
          2.2480947971 -14.866936684 -4.6166028369e-06 -0.21104873717 -7.9378051758 9.4939023256e-06
          9.5256652832 -17.327056885 0.47303116322 -0.14247988164 -1.9258768559 -0.11286251247
          3.4469161034 -14.877784729 0.35873416066 -0.16062873602 -4.5031762123 6.3447942011e-06
          -0.20380224288 -6.122262001 -0.076187565923 5.1691651344 -16.952859879 -1.5748957594e-05
          14.874349594 -20.105676651 -0.60442280769 0 0 0
          -0.28477790952 -11.568094254 0.3740054667 2.2730333805 -14.886431694 0.15673062205
          0 0 0 12.596301079 -19.821052551 -0.53914225101
          -0.99991208315 -11.793989182 -0.36661112309 -0.21974988282 -7.9146289825 -0.039183843881
          -0.11508277804 -0.83795064688 0.11785502732 0.0018350217724 -13.302659035 -0.38078004122
          14.874791145 -20.154582977 -0.30211696029 7.3376140594 -17.089323044 0.40241500735
          12.59657383 -19.86967659 -0.26915800571 -0.079698741436 -0.85942167044 0.049113016576
          -0.51127403975 -9.7093820572 -0.053311139345 -0.92927736044 -11.782658577 -0.16196325421
          -0.16419808567 -3.0967075825 -0.12472709268 3.9901542664 -16.838119507 -0.31413349509
          -0.16121996939 -4.4903492928 -0.064961925149 0.72372466326 -13.042859077 0.31863054633
          -0.13247726858 -6.0018658638 0.11627839506 5.1644086838 -16.930360794 0.17593255639
          0.0045145801269 -13.308292389 -0.11075364798 -0.13466696441 -6.0399885178 0.066261187196
          3.900690794 -16.755407333 -0.14056485891 10.329811096 -19.569242477 -0.47355487943
          14.87469101 -20.170782089 -2.0956227672e-05 -0.16471503675 -1.8071742058 0.15728235245
          0 0 0 10.324544907 -19.615774155 -0.23541456461
          -0.14032644033 -1.8387392759 0.080834113061 12.5966959 -19.88552475 -1.9859551685e-05
          1.184620738 -14.952848434 -0.35758981109 -0.36291655898 -11.437651634 5.1367887863e-06
          -0.023638086393 -13.32886982 1.7238559167e-06 -0.23928493261 -9.7967805862 0.056286729872
          -0.077240437269 -0.86453777552 8.2397951928e-07 1.080845952 -14.889635086 -0.14961822331
          3.7096447945 -16.609769821 -9.9155558928e-06 -0.23582334816 -9.8383216858 0.03686164692
          -0.13853953779 -6.0535998344 6.7382293309e-06 2.294077158 -14.902937889 0.33849799633
          10.319384575 -19.628509521 -1.9247592718e-05 -0.2198523432 -7.8642616272 -0.072554089129
          -0.13223493099 -1.8475804329 1.8827188342e-06 8.0350799561 -19.336387634 -0.40653181076
          14.874788284 -20.154586792 0.30207520723 0.93558973074 -14.785634041 -1.6267165392e-06
          -0.1798388958 -2.9393286705 0.17806233466 -0.16101032495 -4.4510211945 -0.12686771154
          -0.23065543175 -9.7939004898 7.5735792961e-06 5.1460213661 -16.882743835 0.32945436239
          0 0 0 8.0375270844 -19.387296677 -0.19378426671
          -0.16978229582 -2.9759089947 0.091226153076 12.596571922 -19.869680405 0.26911851764
          -0.92928779125 -11.782664299 0.16197878122 0.0045061726123 -13.308294296 0.11075936258
          -0.079698428512 -0.85942149162 -0.049111362547 3.9006893635 -16.755413055 0.14054483175
          -0.13466691971 -6.0399909019 -0.066248200834 10.324542999 -19.615776062 0.23537646234
          8.0395030975 -19.400112152 -1.8475953766e-05 2.7354056835 -16.762319565 -0.35305732489
          -0.063387669623 -7.7694745064 0.13462719321 -0.16551153362 -2.9861695766 2.8630024644e-06
          -0.14032582939 -1.8387391567 -0.080830328166 -0.062537588179 -7.8019828796 0.064283549786
          1.0808417797 -14.889641762 0.14961503446 2.6973092556 -16.720928192 -0.16584999859
          -0.23582451046 -9.8383274078 -0.036846298724 5.7127556801 -19.094970703 -0.31811791658