<?xml version="1.0"?>
<VTKFile type="UnstructuredGrid" version="0.1" byte_order="LittleEndian" header_type="UInt32" compressor="vtkZLibDataCompressor">
  <UnstructuredGrid>
    <Piece NumberOfPoints="6405" NumberOfCells="4800">
      <PointData>
        <DataArray type="Float32" Name="DISPLACEMENT" NumberOfComponents="3" ComponentName0="X-DISPLACEMENT" ComponentName1="Y-DISPLACEMENT" ComponentName2="Z-DISPLACEMENT" format="ascii" RangeMin="0" RangeMax="515.11330608">
          0 0 0 0 0 0
          2.694514513 -1.5543560982 -1.2713614702 0 0 0
          1.7327486277 -0.84969168901 -0.98091870546 0 0 0
          2.451474905 -1.7272437811 -0.50529712439 1.4995056391 -0.99702614546 -0.40268573165
          0 0 0 4.9811310768 -2.933078289 -1.3807951212
          0 0 0 4.8836355209 -3.1507387161 -0.70355498791
          3.5718598366 -2.350225687 -1.1366986036 0 0 0
          0 0 0 2.4799752235 -1.7887250185 2.152360068e-08
          1.2631875277 -0.5511046648 -0.77089315653 1.5114234686 -1.0271986723 2.3883504952e-08
          3.4734842777 -2.5245172977 -0.57457375526 1.0909421444 -0.68262088299 -0.31457534432
          4.836959362 -3.2082858086 6.2197969442e-08 2.5329477787 -1.9067877531 -0.88380855322
          0 0 0 3.4318780899 -2.5822887421 6.5224959656e-08
          2.4471435547 -2.0637955666 -0.45014512539 0 0 0
          7.2032179832 -4.7813858986 -1.3783558607 0 0 0
          1.1037700176 -0.71101146936 2.2039831293e-08 0 0 0
          0 0 0 2.451474905 -1.7272437811 0.50529718399
          5.3959360123 -4.1819076538 -1.1436953545 7.1803965569 -4.9599742889 -0.69520235062
          0.85346645117 -0.42067474127 -0.55152004957 1.4995056391 -0.99702614546 0.40268576145
          5.3736901283 -4.3505253792 -0.57844376564 0.72461593151 -0.54864740372 -0.22803534567
          2.4111037254 -2.1126942635 6.2119582367e-08 4.8836355209 -3.1507387161 0.70355510712
          0 0 0 0 0 0
          1.6927121878 -1.677060008 -0.65284657478 3.9100403786 -3.7313098907 -0.91704541445
          7.1526446342 -5.0201530457 1.2710809472e-07 3.4734842777 -2.5245172977 0.57457387447
          3.8746008873 -3.8884193897 -0.46320050955 1.0909421444 -0.68262088299 0.31457540393
          5.3492555618 -4.4040994644 1.3036105884e-07 1.6176019907 -1.8252241611 -0.33104178309
          0.73429757357 -0.5744574666 1.5369408857e-08 0 0 0
          9.3837985992 -6.9623360634 -1.3213014603 0 0 0
          7.2212285995 -6.3765683174 -1.1182056665 2.4471435547 -2.0637955666 0.4501452446
          9.389213562 -7.1162161827 -0.66545712948 2.694514513 -1.5543560982 1.2713615894
          0 0 0 0 0 0
          1.5890784264 -1.8723003864 5.1359357656e-08 3.8516795635 -3.936653614 1.2659089066e-07
          0.45360767841 -0.39349728823 -0.33289435506 7.224003315 -6.5259170532 -0.56287699938
          1.7327486277 -0.84969168901 0.98091876507 2.6288259029 -3.4502575397 -0.69938194752
          0 0 0 7.1803965569 -4.9599742889 0.69520258904
          0.35506895185 -0.51896172762 -0.13892625272 2.5841333866 -3.5944564342 -0.35319712758
          5.3736901283 -4.3505253792 0.57844406366 0.72461599112 -0.54864740372 0.22803537548
          5.339700222 -5.91659832 -0.91925114393 0.90729850531 -1.612044692 -0.43904483318
          9.3752527237 -7.1673102379 2.1753008639e-07 4.9811310768 -2.933078289 1.3807952404
          0 0 0 0 0 0
          5.3266263008 -6.0590686798 -0.46238976717 3.571860075 -2.350225687 1.1366987228
          7.2143678665 -6.5748429298 2.218938846e-07 0.83291906118 -1.7498375177 -0.22088812292
          1.2631875277 -0.5511046052 0.77089321613 0.35310092568 -0.54449748993 1.7314426559e-09
          2.5613152981 -3.6380925179 1.1386730137e-07 3.8746011257 -3.8884193897 0.46320074797
          1.6176019907 -1.8252241611 0.3310419023 5.3147902489 -6.1044363976 2.1876398648e-07
          2.5329480171 -1.9067876339 0.88380873203 0.80793565512 -1.7949769497 3.0741894363e-08
          3.6622111797 -5.6112895012 -0.73062282801 9.3892145157 -7.1162161827 0.66545760632
          7.2032184601 -4.7813858986 1.3783560991 0 0 0
          11.501294136 -9.4514656067 -1.2703003883 0 0 0
          0 0 0 1.4605569839 -3.3480260372 -0.5109359026
          3.6337120533 -5.7408256531 -0.36691039801 11.51478672 -9.584236145 -0.63720744848
          9.0272626877 -8.8766479492 -1.0932085514 7.2240037918 -6.5259170532 0.56287747622
          0.072223089635 -0.46683642268 -0.11982402205 0 0 0
          5.3959360123 -4.1819076538 1.1436955929 0.85346651077 -0.42067468166 0.55152010918
          1.4036818743 -3.4728679657 -0.2558580637 0.35506901145 -0.51896166801 0.13892626762
          -0.0089577091858 -0.58369725943 -0.051754888147 2.5841333866 -3.5944564342 0.353197366
          9.0377864838 -9.0080499649 -0.54816991091 5.3266263008 -6.0590686798 0.4623902142
          3.6191394329 -5.7818212509 2.0598304218e-07 11.510239601 -9.6288795471 3.3488453255e-07
          0.16592517495 -1.7022000551 -0.25232806802 0.83291912079 -1.7498373985 0.22088818252
          0 0 0 6.7994327545 -8.4140739441 -0.91991335154
          1.6927124262 -1.6770598888 0.65284669399 3.910040617 -3.7313098907 0.91704571247
          1.3806284666 -3.5119020939 9.0137781683e-08 9.036151886 -9.0513505936 3.4181030628e-07
          -0.030801536515 -0.60562181473 -2.3007730832e-08 0.077547185123 -1.8221815825 -0.12377846986
          6.7955217361 -8.5402469635 -0.46067878604 9.3837985992 -6.9623365402 1.3213019371
          0 0 0 2.1269922256 -5.4737434387 -0.56862705946
          7.2212290764 -6.3765683174 1.1182061434 0.050794620067 -1.8630695343 -3.04658343e-09
          2.0840229988 -5.5812339783 -0.28401172161 6.791264534 -8.5814161301 3.4045797292e-07
          0.45360776782 -0.39349722862 0.33289438486 3.6337122917 -5.7408256531 0.36691081524
          4.7671022415 -8.0889978409 -0.75559127331 11.51478672 -9.584236145 0.63720816374
          0.38294503093 -3.4239702225 -0.36401173472 2.6288261414 -3.4502575397 0.69938218594
          0 0 0 1.4036819935 -3.4728679657 0.25585824251
          4.7490830421 -8.203576088 -0.37800806761 -0.0089576542377 -0.58369719982 0.05175485462
          0.30686423182 -3.5163362026 -0.17919912934 9.0377864838 -9.0080499649 0.54817062616
          5.3397006989 -5.91659832 0.91925162077 0.90729868412 -1.6120445728 0.43904492259
          13.558233261 -12.206273079 -1.2290211916 0 0 0
          2.0666792393 -5.6160144806 1.8200657337e-07 10.809678078 -11.642669678 -1.0726900101
          13.572489738 -12.323261261 -0.61525636911 0 0 0
          -0.46312305331 -0.63169687986 0.093513689935 10.821401596 -11.759094238 -0.53674376011
          4.7411179543 -8.2408065796 3.295475608e-07 -0.55868810415 -0.75109583139 0.027088010684
          0.077547296882 -1.8221815825 0.12377847731 0.28105741739 -3.5466866493 5.3485290863e-08
          6.7955217361 -8.5402469635 0.46067947149 8.275762558 -11.178473473 -0.91946136951
          -0.67370831966 -1.9206490517 -0.11625523865 13.57217598 -12.362410545 4.8115560958e-07
          0 0 0 -0.79418063164 -2.004843235 -0.054612457752
          8.2761182785 -11.290783882 -0.45952671766 10.823166847 -11.797690392 4.9166305871e-07
          -0.59985744953 -0.78371429443 -6.651964668e-08 3.6622114182 -5.6112895012 0.73062330484
          2.8959515095 -7.9196286201 -0.61556756496 11.50129509 -9.4514656067 1.2703011036
          0 0 0 0.73115497828 -5.5207891464 -0.4525411427
          2.0840232372 -5.5812339783 0.28401210904 1.4605573416 -3.3480257988 0.51093608141
          9.0272636414 -8.8766479492 1.0932092667 0.072223179042 -0.46683633327 0.11982402205
          0.67262172699 -5.5916547775 -0.22361274064 2.8655233383 -8.0129518509 -0.30682560802
          4.7490830421 -8.203576088 0.37800872326 0.30686438084 -3.5163359642 0.17919924855
          8.2755088806 -11.327821732 4.9378371614e-07 -0.8250824213 -2.038721323 -5.2672611162e-08
          5.927136898 -10.837275505 -0.77409183979 -0.70430999994 -3.6573369503 -0.28039717674
          0.16592536867 -1.7021998167 0.25232809782 13.572489738 -12.323261261 0.61525738239
          6.7994332314 -8.4140739441 0.91991406679 0 0 0
          2.8543679714 -8.0441408157 3.0748236668e-07 0.6521589756 -5.6163764 1.4520119862e-07
          5.9164180756 -10.9394207 -0.38654604554 10.821401596 -11.759094238 0.53674477339
          -0.80522143841 -3.6973011494 -0.13942456245 -0.55868804455 -0.75109577179 -0.027088124305
          2.1269927025 -5.4737434387 0.56862741709 5.9126133919 -10.973120689 4.8623422799e-07
          8.2761182785 -11.290783882 0.45952773094 -0.79418051243 -2.004843235 0.05461236462
          -0.83422154188 -3.7178444862 4.7924725299e-10 15.562844276 -15.196933746 -1.1972239017
          0 0 0 15.575341225 -15.302233696 -0.59872353077
          4.7671027184 -8.0889978409 0.75559192896 12.568908691 -14.64269352 -1.0562229156
          0.38294535875 -3.4239699841 0.36401188374 1.2001575232 -7.9271554947 -0.51929724216
          -1.3934259415 -0.8814150691 0.2205221802 0.67262196541 -5.5916547775 0.22361303866
          2.8655235767 -8.0129518509 0.30682623386 0 0 0
          12.57950592 -14.747770309 -0.52802538872 1.159717679 -7.9853014946 -0.25707158446
          -1.5739058256 -0.96651047468 0.083195544779 3.7510988712 -10.63731575 -0.6499376893
          -0.58882260323 -5.747877121 -0.40608856082 13.558233261 -12.206273079 1.2290222645
          0 0 0 10.809679031 -11.642669678 1.072691083
          15.576602936 -15.337351799 6.5736156785e-07 -0.66071051359 -5.762368679 -0.20265851915
          3.7313776016 -10.720509529 -0.32373160124 -0.46312299371 -0.63169670105 -0.093513764441
          9.7616119385 -14.177404404 -0.91790527105 -1.7366890907 -2.2098629475 -0.094805553555
          0 0 0 5.9164185524 -10.9394207 0.38654702902
          -0.80522125959 -3.6973009109 0.13942457736 12.582204819 -14.782629013 6.7254404712e-07
          1.1460056305 -8.0068902969 2.7306555239e-07 9.7639245987 -14.279089928 -0.45835906267
          -1.8856773376 -2.241825819 -0.042633332312 -1.6420302391 -0.9965903163 -1.4254767677e-07
          8.275762558 -11.178473473 0.91946238279 -0.67370814085 -1.9206488132 0.1162551716
          3.7249736786 -10.748776436 4.6754564664e-07 -0.68252968788 -5.7761278152 9.229060538e-08
          2.8959519863 -7.9196286201 0.61556822062 9.7648410797 -14.312770844 6.7910821144e-07
          -1.9144259691 -2.2738969326 -1.2396901639e-07 0.73115545511 -5.5207886696 0.45254147053
          15.575341225 -15.302233696 0.59872484207 7.1290512085 -13.821909904 -0.78626149893
          0 0 0 -1.8954939842 -4.0248346329 -0.33754011989
          7.1234812737 -13.914915085 -0.39234945178 12.57950592 -14.747770309 0.52802675962
          -1.5739058256 -0.96651035547 -0.08319580555 1.1597180367 -7.9853014946 0.25707215071
          -2.0039448738 -3.9902849197 -0.1651378125 5.9271373749 -10.837275505 0.77409285307
          1.7815595865 -10.598577499 -0.56398791075 3.73137784 -10.720509529 0.32373255491
          -0.70430964231 -3.6573367119 0.28039720654 -0.66071027517 -5.762368679 0.20265871286
          -0.33963805437 -8.1197929382 -0.48899209499 1.7566715479 -10.651074409 -0.28016716242
          7.1220431328 -13.945775986 6.7587484409e-07 9.7639245987 -14.279089928 0.45836043358
          -1.8856772184 -2.241825819 0.042633090168 -0.38341674209 -8.1273641586 -0.24518795311
          -2.0250885487 -4.0072169304 -7.635110677e-08 17.52586174 -18.401468277 -1.1735538244
          0 0 0 -1.8095030785 -1.3773877621 0.077876113355
          1.7488683462 -10.671285629 4.3772337222e-07 4.6766281128 -13.593161583 -0.67283636332
          14.307957649 -17.854534149 -1.0432437658 15.562844276 -15.196933746 1.1972252131
          0 0 0 0 0 0
          -0.39708861709 -8.1397657394 2.2415500212e-07 -1.8813390732 -6.1315259933 -0.50262832642
          17.535896301 -18.498630524 -0.58660459518 4.6652989388 -13.669916153 -0.33514210582
          14.316675186 -17.951557159 -0.52137726545 12.568909645 -14.64269352 1.0562243462
          -2.1112141609 -1.3181056976 -0.0098056364805 1.2001581192 -7.9271554947 0.51929777861
          -1.3934259415 -0.88141483068 -0.22052235901 -1.9453859329 -6.0792388916 -0.24684396386
          7.1234817505 -13.914915085 0.39235079288 -2.0039446354 -3.9902849197 0.16513766348
          11.252757072 -17.388053894 -0.91536670923 3.7510995865 -10.63731575 0.64993864298
          -0.58882212639 -5.747877121 0.40608879924 0 0 0
          -2.1592702866 -3.0812456608 -0.60683310032 17.537559509 -18.530925751 8.643989986e-07
          -2.177120924 -1.3392937183 -2.7835568517e-07 4.6621432304 -13.696240425 6.620218187e-07
          11.255865097 -17.482242584 -0.45698869228 9.7616128922 -14.177404404 0.91790664196
          14.319280624 -17.983722687 8.8447848157e-07 -1.7366888523 -2.209862709 0.094805330038
          -1.9597702026 -6.0890069008 1.6219029675e-08 -2.2779126167 -2.9297745228 -0.25437486172
          1.7566719055 -10.651074409 0.28016805649 -0.38341644406 -8.1273641586 0.24518841505
          0.026308076456 -10.722457886 -0.53657323122 11.257261276 -17.513475418 8.9582033524e-07
          -2.2673232555 -2.9709477425 -2.7694528626e-07 0.0041597839445 -10.734500885 -0.26984715462
          8.3625640869 -17.01971817 -0.79309046268 0 0 0
          -2.193202734 -5.0091252327 -0.81907010078 17.535896301 -18.498630524 0.58660632372
          -2.1112141609 -1.3181055784 0.0098051382229 4.6652994156 -13.669916153 0.33514341712
          8.3605413437 -17.106645584 -0.39571014047 7.1290521622 -13.821909904 0.78626286983
          14.31667614 -17.951557159 0.52137905359 2.4562680721 -13.50936985 -0.59260988235
          -1.707723856 -8.459821701 -0.58159691095 -1.8954936266 -4.024834156 0.33754000068
          -2.2111656666 -4.871160984 -0.36413016915 -1.9453856945 -6.0792388916 0.24684400856
          2.4434065819 -13.560718536 -0.2948064208 -1.7356808186 -8.4212999344 -0.28813976049
          -0.0023254794069 -10.748362541 3.9430335619e-07 1.7815601826 -10.598577499 0.56398880482
          11.255865097 -17.482242584 0.45699048042 -0.33963745832 -8.1197929382 0.48899260163
          8.3603982925 -17.135547638 8.9772044021e-07 -2.2779123783 -2.9297745228 0.25437435508
          -2.2103888988 -4.8805065155 -2.2313373904e-07 2.4398686886 -13.580954552 6.3739349798e-07
          -1.7434304953 -8.4312534332 1.5431794509e-07 -2.1116070747 -6.9817094803 -0.82463037968
          5.6578097343 -16.764032364 -0.68605470657 17.525863647 -18.401468277 1.1735556126
          0 0 0 0.004160142038 -10.734500885 0.26984795928
          -1.80950284 -1.3773875237 -0.077876478434 -2.0878419876 -6.9188747406 -0.38621717691
          4.6766290665 -13.593161583 0.67283767462 14.307958603 -17.854534149 1.043245554
          5.6527042389 -16.837560654 -0.3418751955 19.457794189 -21.805469513 -1.1566634178
          0 0 0 -1.8813385963 -6.1315255165 0.50262838602
          19.465402603 -21.897363663 -0.57802528143 -2.2234795094 -2.0784933567 -0.98748791218
          16.030668259 -21.263816833 -1.0332499743 8.3605413437 -17.106645584 0.39571192861
          0 0 0 -2.2111651897 -4.871160984 0.36412975192
          16.037437439 -21.355546951 -0.51636987925 -2.3077614307 -1.6606570482 -0.43202725053
          2.4434070587 -13.560718536 0.2948077023 -1.7356804609 -8.4212999344 0.28814008832
          11.252758026 -17.388053894 0.91536855698 -2.0885312557 -6.923406601 -1.094576163e-07
          5.6515984535 -16.862819672 8.8909604301e-07 -2.1592698097 -3.0812454224 0.60683262348
          0.51163744926 -13.571297646 -0.56311291456 -1.698025465 -4.371986866 -1.1104183197
          12.746658325 -20.795930862 -0.91218554974 -1.3963098526 -10.987024307 -0.60894268751
          19.46701622 -21.927820206 1.1015047221e-06 0 0 0
          0.50526374578 -13.593454361 -0.28154990077 16.039609909 -21.385921478 1.126836537e-06
          -2.278856039 -1.6645662785 -4.4279178724e-07 12.749957085 -20.885261536 -0.45542609692
          -1.5431425571 -4.2943434715 -0.51460176706 -1.3994475603 -10.973195076 -0.30157440901
          0.02630880475 -10.722457886 0.53657406569 0.50349700451 -13.609465599 6.0049563899e-07
          -1.9135303497 -9.1060590744 -0.75489097834 -2.0878415108 -6.9188747406 0.3862169683
          3.2070384026 -16.63502121 -0.60641866922 12.75138855 -20.914894104 1.1433982081e-06
          8.3625650406 -17.01971817 0.79309225082 5.6527047157 -16.837560654 0.34187698364
          -1.4018149376 -10.986400604 3.3249295939e-07 -1.5136147738 -4.2969484329 -5.3276528433e-07
          -2.1932020187 -5.0091252327 0.81906980276 19.46540451 -21.897363663 0.5780274868
          9.6194458008 -20.416116714 -0.79576557875 -1.8762332201 -9.1100254059 -0.3662391603
          -1.5463062525 -6.1598343849 -0.90770423412 3.2029933929 -16.688688278 -0.30204924941
          2.4562690258 -13.50936985 0.59261119366 -1.7077231407 -8.459821701 0.58159726858
          0 0 0 -1.4296579361 -6.2206401825 -0.42921873927
          16.037439346 -21.355546951 0.51637214422 -2.3077607155 -1.6606570482 0.43202638626
          9.61977005 -20.499490738 -0.39711016417 -1.8755173683 -9.120965004 5.3986763504e-08
          3.2021043301 -16.70939064 8.7029587803e-07 0.50526416302 -13.593454361 0.28155112267
          9.6203145981 -20.527225494 1.1502742154e-06 -1.4221904278 -6.1870632172 -4.1878030288e-07
          12.749958038 -20.885261536 0.4554283917 -1.5431418419 -4.2943434715 0.51460069418
          -1.3994472027 -10.973195076 0.30157506466 -2.1116061211 -6.9817090034 0.82463026047
          5.657810688 -16.764032364 0.68605649471 6.6821203232 -20.135850906 -0.69174432755
          19.457794189 -21.805469513 1.1566655636 0 0 0
          -1.4139735699 -7.7891955376 -0.7010897994 -2.2234787941 -2.0784931183 0.98748713732
          16.030668259 -21.263816833 1.0332523584 -1.8762327433 -9.1100254059 0.36623930931
          3.2029938698 -16.688688278 0.30205100775 6.6812844276 -20.208526611 -0.34490796924
          -0.96644681692 -13.754738808 -0.59542459249 -1.3363169432 -7.9388070107 -0.3471545577
          -1.4296572208 -6.2206401825 0.42921790481 9.61977005 -20.499490738 0.39711248875
          -0.95351845026 -13.767994881 -0.29596090317 1.0884165764 -16.628850937 -0.56500208378
          -1.6293798685 -11.447128296 -0.66670310497 21.367910385 -25.400550842 -1.1452338696
          0 0 0 17.740903854 -24.862438202 -1.0257844925
          0.51163834333 -13.571297646 0.56311416626 -1.6980242729 -4.371986866 1.110417366
          12.746660233 -20.795930862 0.91218787432 -1.5891608 -11.495808601 -0.33037781715
          1.0923886299 -16.662769318 -0.28269860148 -1.3963090181 -10.987024307 0.60894340277
          21.373418808 -25.489385605 -0.57223528624 0 0 0
          -1.3333455324 -7.9319057465 -2.4443173174e-07 6.681432724 -20.233413696 1.147169769e-06
          0.0051726163365 -2.1465816498 -0.0045715882443 17.745933533 -24.951034546 -0.51268261671
          0.0046106087975 -2.3214249611 -0.0013126503909 -0.95283651352 -13.784426689 5.5024719359e-07
          14.241783142 -24.39299202 -0.90873092413 -1.5871058702 -11.513718605 2.5741476861e-07
          1.0930726528 -16.680706024 8.4122359567e-07 21.374832153 -25.518754959 1.3681443534e-06
          0 0 0 0.010578838177 -5.1855983734 -0.0031228247099
          14.24494648 -24.47951889 -0.45377007127 17.747621536 -24.980337143 1.3986798422e-06
          -1.9135293961 -9.1060590744 0.75489115715 3.2070393562 -16.63502121 0.60642045736
          0.0047621042468 -2.177532196 -5.3556897228e-07 0.01096979063 -5.5025339127 -0.0015384223079
          9.6194467545 -20.416116714 0.79576796293 -1.5463050604 -6.1598343849 0.90770339966
          -1.2391655445 -9.6501893997 -0.55130916834 4.0186667442 -19.964693069 -0.60945308208
          -1.3363162279 -7.9388070107 0.34715408087 6.6812849045 -20.208526611 0.34491029382
          -1.1843603849 -9.8311271667 -0.28050944209 4.0202450752 -20.022409439 -0.30382609367
          -0.95351797342 -13.767994881 0.29596200585 14.246244431 -24.508232117 1.4202043985e-06
          0.01100956928 -5.4617509842 -7.765975738e-07 10.8931036 -24.003250122 -0.79552388191
          -1.5891602039 -11.495808601 0.3303783536 1.0923891068 -16.662769318 0.28270027041
          21.373418808 -25.489385605 0.57223802805 0 0 0
          0.011119014584 -6.7613554001 -0.0025912281126 10.894861221 -24.084939957 -0.39708650112
          17.74593544 -24.951034546 0.51268541813 0.011186558753 -7.0712590218 -0.0012930238154
          -1.1818181276 -9.8489789963 -3.8448153106e-08 4.020968914 -20.043983459 1.1346158999e-06
          0.0046110311523 -2.3214249611 0.0013116240734 14.244947433 -24.47951889 0.45377293229
          10.895752907 -24.112121582 1.4323478581e-06 0.011151975021 -7.0257811546 -5.618755381e-07
          6.6821212769 -20.135850906 0.69174665213 -0.47966229916 -16.721050262 -0.55769068003
          0.010970728472 -5.5025339127 0.001536731841 -1.4139722586 -7.7891955376 0.70108932257
          -1.2867888212 -14.040564537 -0.57641756535 -0.45994547009 -16.755887985 -0.27910193801
          -0.96644592285 -13.754738808 0.59542572498 -1.2486000061 -14.115105629 -0.29009947181
          -1.1843595505 -9.8311271667 0.28050938249 4.0202455521 -20.022409439 0.30382838845
          1.0884175301 -16.628850937 0.56500381231 -1.6293787956 -11.447128296 0.66670370102
          0.01115860045 -8.1310930252 -0.0025089166593 7.7385649681 -23.701808929 -0.69228863716
          21.367912292 -25.400550842 1.1452366114 0 0 0
          17.740903854 -24.862438202 1.0257872343 0.011100001633 -8.4375638962 -0.001271541696
          -0.4573905468 -16.775436401 8.0268046077e-07 -1.0430164337 -11.80807209 -0.44162991643
          1.733135581 -19.89727211 -0.55482888222 7.7404036522 -23.775083542 -0.34534668922
          0.005172951147 -2.1465814114 0.0045710392296 -1.2453314066 -14.138439178 4.9485163345e-07
          10.894862175 -24.084939957 0.39708936214 0.011187454686 -7.0712590218 0.0012918428984
          1.7422053814 -19.942213058 -0.27757504582 -1.0014355183 -11.991388321 -0.2277315855
          14.241784096 -24.39299202 0.90873378515 0.011058375239 -8.4378013611 -3.2680563322e-07
          7.7412753105 -23.800073624 1.4345367845e-06 0.010580654256 -5.1855983734 0.0031208731234
          1.7443940639 -19.962171555 1.1132801774e-06 23.263790131 -29.182905197 -1.1380212307
          0 0 0 -0.99861723185 -12.023146629 1.9323914557e-07
          23.267601013 -29.270288467 -0.56857514381 0 0 0
          -0.45994496346 -16.755887985 0.27910354733 19.442110062 -28.646957397 -1.0204027891
          -1.2391642332 -9.6501893997 0.55130910873 4.0186676979 -19.964693069 0.60945534706
          2.2443134785 -2.0811474323 0.98512369394 -1.2485994101 -14.115105629 0.29010048509
          19.445697784 -28.734004974 -0.51005107164 2.3288679123 -1.6629610062 0.43071329594
          10.893104553 -24.003250122 0.79552674294 23.268777847 -29.299108505 1.6653606281e-06
          0.011100875214 -8.4375638962 0.0012708613649 15.737235069 -28.175916672 -0.90531015396
          1.7198426723 -4.3753552437 1.1084535122 7.740404129 -23.775083542 0.34534955025
          0 0 0 4.8754358292 -23.494827271 -0.60606700182
          0.011151802726 -9.8607702255 -0.0026066380087 0.01112063881 -6.7613554001 0.0025899435859
          1.5643974543 -4.2981395721 0.51343649626 15.740086555 -28.261135101 -0.45213496685
          19.446949005 -28.762763977 1.700766461e-06 1.7422058582 -19.942213058 0.277577281
          0.011036382988 -10.143098831 -0.0013293288648 4.8801212311 -23.556957245 -0.30231556296
          -1.0014346838 -11.991388321 0.22773197293 2.2996356487 -1.6671800613 -5.4170897101e-07
          -0.90020465851 -16.890066147 -0.50034719706 15.741192818 -28.289430618 1.7270623403e-06
          -0.47966125607 -16.721050262 0.55769234896 1.5347831249 -4.3008413315 -6.1115935068e-07
          0.01099180989 -10.172923088 -9.1205656361e-08 -0.86616754532 -16.977430344 -0.2526063025
          4.8817353249 -23.57957077 1.42805618e-06 -1.2867876291 -14.040564537 0.57641863823
          23.267601013 -29.270288467 0.56857848167 12.178262711 -27.777833939 -0.79346853495
          -0.83343553543 -14.265320778 -0.35965946317 0 0 0
          1.5682935715 -6.1644916534 0.90464693308 0.053943429142 -19.912385941 -0.51924604177
          1.4512499571 -6.2260584831 0.42760953307 12.180786133 -27.85912323 -0.39613541961
          19.445697784 -28.734004974 0.51005446911 -0.80062454939 -14.438194275 -0.18611261249
          0.074496224523 -19.962696075 -0.25996929407 2.3288686275 -1.6629610062 -0.43071433902
          0.011160144582 -8.1310930252 0.0025082028005 7.7385663986 -23.701808929 0.69229155779
          -0.86186301708 -17.004623413 7.6122307746e-07 -1.0430151224 -11.80807209 0.44163033366
          1.7331367731 -19.89727211 0.55483114719 12.181805611 -27.886175156 1.7438039777e-06
          15.740087509 -28.261135101 0.45213842392 -0.7975512743 -14.476167679 4.4875389449e-07
          1.5643982887 -4.2981395721 -0.51343768835 1.4437297583 -6.1925358772 -4.7508891043e-07
          0.011037232354 -10.143098831 0.0013291356154 4.8801221848 -23.556957245 0.30231842399
          0.078116826713 -19.984716415 1.0846256373e-06 2.4256391525 -23.376358032 -0.53978717327
          0.011075850576 -11.941830635 -0.0027782863472 2.4365489483 -23.430326462 -0.26999044418
          0.01093665231 -12.192110062 -0.0014211214148 23.263792038 -29.182905197 1.1380246878
          0 0 0 -0.86616683006 -16.977430344 0.25260785222
          1.4360636473 -7.7942485809 0.69728732109 8.8175153732 -27.45917511 -0.6895660758
          1.3580933809 -7.9446201324 0.34521472454 19.442111969 -28.646957397 1.0204062462
          2.2443144321 -2.0811476707 -0.98512458801 8.8208723068 -27.533834457 -0.34412103891
          12.180786133 -27.85912323 0.39613890648 -0.80062377453 -14.438194275 0.18611350656
          1.4512507915 -6.2260584831 -0.42761048675 0.074496805668 -19.962696075 0.25997146964
          2.4393684864 -23.452060699 1.4138648794e-06 0.010891721584 -12.235337257 1.5623793104e-07
          15.737236023 -28.175916672 0.90531367064 1.7198441029 -4.3753552437 -1.1084547043
          4.8754367828 -23.494827271 0.60606992245 1.3550596237 -7.937816143 -2.8972647215e-07
          0.011153304018 -9.8607702255 0.0026064419653 8.8221073151 -27.559200287 1.7512459181e-06
          25.1512146 -33.151924133 -1.133897543 0 0 0
          -0.90020334721 -16.890066147 0.50034880638 2.4365496635 -23.430326462 0.2699932754
          0 0 0 21.137121201 -32.61713028 -1.0166748762
          -0.61485761404 -17.017372131 -0.2973601222 0.010937490501 -12.192110062 0.0014214318944
          1.8215901852 -1.3805366755 -0.082502536476 -0.49440068007 -19.988920212 -0.4370456934
          25.153718948 -33.238937378 -0.56646865606 12.178263664 -27.777833939 0.79347205162
          21.139568329 -32.703708649 -0.50824445486 2.1240134239 -1.3219285011 0.0081699453294
          -0.83343410492 -14.265320778 0.35966038704 -0.58882546425 -17.175966263 -0.15396590531
          1.5682948828 -6.1644916534 -0.90464782715 5.7637205124 -27.223449707 -0.59926611185
          1.3580942154 -7.9446201324 -0.34521529078 0.053944598883 -19.912385941 0.51924824715
          1.2612119913 -9.6557254791 0.54692977667 8.8208732605 -27.533834457 0.34412455559
          -0.46556136012 -20.081676483 -0.22103771567 1.2061036825 -9.8373680115 0.27828806639
          5.7699756622 -27.289676666 -0.29898867011 17.23251152 -32.144573212 -0.9021487236
          25.154663086 -33.26757431 1.9929389055e-06 2.1767189503 -3.0851793289 0.60443222523
          0 0 0 17.234945297 -32.229499817 -0.45061543584
          2.2956497669 -2.9339401722 0.25325033069 21.140457153 -32.732288361 2.0329757717e-06
          0.62047660351 -23.328514099 -0.48351073265 -0.58560353518 -17.215543747 7.2837519838e-07
          -0.46108731627 -20.110706329 1.0550883189e-06 0.010923155583 -14.349127769 -0.0029802259523
          2.1906104088 -1.3429086208 -3.246491076e-07 0.63949513435 -23.389375687 -0.24213026464
          5.7719521523 -27.313314438 1.7503239178e-06 0.010773277842 -14.567339897 -0.0015275244368
          1.2034919262 -9.8553466797 -7.7362685147e-08 2.4256403446 -23.376358032 0.53979003429
          17.235839844 -32.257709503 2.0636769023e-06 0.011077347212 -11.941830635 0.0027786106803
          2.2850534916 -2.9751865864 -3.4095472756e-07 13.47114563 -31.73960495 -0.79036855698
          25.153718948 -33.238937378 0.56647264957 0.64319437742 -23.413204193 1.3939812789e-06
          2.2123248577 -5.0154867172 0.81717950106 1.4360649586 -7.7942485809 -0.69728791714
          0.010727135465 -14.614544868 4.2123036792e-07 8.8175163269 -27.45917511 0.68956965208
          0 0 0 13.473922729 -31.821323395 -0.39465016127
          2.2301442623 -4.8778796196 0.36314797401 21.139568329 -32.703708649 0.50824856758
          -0.58882462978 -17.175966263 0.15396738052 -0.46556061506 -20.081676483 0.22103983164
          2.1240134239 -1.3219286203 -0.0081705227494 5.7699761391 -27.289676666 0.29899218678
          1.206104517 -9.8373680115 -0.2782882154 17.234947205 -32.229499817 0.45061957836
          13.474915504 -31.848520279 2.0850668534e-06 3.1508173943 -27.06444931 -0.52346408367
          1.0648369789 -11.814224243 0.43672353029 2.2293186188 -4.887357235 -2.8805439456e-07
          2.2956500053 -2.9339401722 -0.25325098634 1.0229468346 -11.998205185 0.22524140775
          0.63949579 -23.389375687 0.24213306606 3.1618711948 -27.125360489 -0.26179155707
          0.01077412162 -14.567339897 0.0015283706598 9.9111938477 -31.406616211 -0.68502914906
          25.1512146 -33.151924133 1.1339015961 0 0 0
          2.1316699982 -6.9898562431 0.82235324383 9.9152421951 -31.483106613 -0.34183970094
          21.137123108 -32.61713028 1.0166789293 2.1076276302 -6.9276027679 0.38506495953
          -0.61485612392 -17.017372131 0.29736164212 3.1648676395 -27.148496628 1.7424976022e-06