<?xml version="1.0"?>
<VTKFile type="UnstructuredGrid" version="0.1" byte_order="LittleEndian" header_type="UInt32" compressor="vtkZLibDataCompressor">
  <UnstructuredGrid>
    <Piece NumberOfPoints="6405" NumberOfCells="4800">
      <PointData>
        <DataArray type="Float32" Name="DISPLACEMENT" NumberOfComponents="3" ComponentName0="X-DISPLACEMENT" ComponentName1="Y-DISPLACEMENT" ComponentName2="Z-DISPLACEMENT" format="ascii" RangeMin="0" RangeMax="300.18499207">
          0 0 0 0 0 0
          2.284971714 -1.3941797018 -1.0497461557 0 0 0
          1.424785018 -0.81983232498 -0.7802156806 0 0 0
          2.0926785469 -1.5530263186 -0.41505008936 1.2394534349 -0.95171052217 -0.31738725305
          0 0 0 4.1004548073 -2.6594035625 -1.0685976744
          0 0 0 4.0457348824 -2.841739893 -0.54972589016
          2.8573880196 -2.2141206264 -0.86715143919 0 0 0
          0 0 0 2.1013822556 -1.6029433012 -2.1645494996e-07
          0.96649932861 -0.5454518199 -0.55122113228 1.2344561815 -0.97452044487 -8.423243969e-08
          2.7971208096 -2.3599257469 -0.44142383337 0.82632499933 -0.66328078508 -0.2244399488
          4.0013012886 -2.8922507763 -4.6095982498e-07 1.9353485107 -1.8791190386 -0.65550494194
          0 0 0 2.7601621151 -2.4062125683 -2.1655569071e-07
          1.8652291298 -2.0069026947 -0.33650681376 0 0 0
          5.7227468491 -4.3055639267 -0.99289155006 0 0 0
          0.82065713406 -0.67896968126 6.2882001828e-08 0 0 0
          0 0 0 2.0926787853 -1.553026557 0.41504967213
          4.1899065971 -3.8839082718 -0.82815665007 5.7426171303 -4.4365139008 -0.50584632158
          0.39109897614 -0.36616244912 -0.31371706724 1.2394533157 -0.95171076059 0.31738707423
          4.2056221962 -4.0068554878 -0.42169609666 0.26301544905 -0.48744469881 -0.14728739858
          1.8341876268 -2.0451276302 4.9970640958e-08 4.0457348824 -2.8417403698 0.54972499609
          0 0 0 0 0 0
          0.98480767012 -1.6822974682 -0.49587506056 2.9301664829 -3.5664286613 -0.67098432779
          5.7280154228 -4.4833784103 -7.4923627835e-07 2.7971205711 -2.3599262238 0.44142341614
          2.9221076965 -3.6811511517 -0.34151372313 0.82632493973 -0.6632810235 0.22444005311
          4.1960430145 -4.0477809906 -3.9227472826e-07 0.91727036238 -1.790476203 -0.24730847776
          0.24888420105 -0.50100195408 2.3544536987e-07 0 0 0
          7.2071943283 -6.1640295982 -0.87987190485 0 0 0
          5.4526968002 -5.7762284279 -0.75943595171 1.8652290106 -2.0069031715 0.33650690317
          7.249464035 -6.2578001022 -0.44557240605 2.284971714 -1.3941801786 1.0497456789
          0 0 0 0 0 0
          0.89328324795 -1.8271348476 3.5688177036e-07 2.9107141495 -3.7184665203 -2.1279838336e-08
          0.15619750321 -0.53631865978 -0.28956112266 5.489751339 -5.8699164391 -0.38326269388
          1.4247847795 -0.81983286142 0.78021550179 1.7903003693 -3.3325898647 -0.51854473352
          0 0 0 5.7426171303 -4.4365148544 0.50584483147
          0.12092994899 -0.6159081459 -0.13045713305 1.7697482109 -3.4461195469 -0.25754463673
          4.2056221962 -4.0068564415 0.421695292 0.26301515102 -0.48744499683 0.14728783071
          3.947945118 -5.4577455521 -0.63669484854 0.33579590917 -1.6562393904 -0.30515664816
          7.2498445511 -6.290667057 -1.0635527588e-06 4.1004548073 -2.6594045162 1.0685967207
          0 0 0 0 0 0
          3.9620051384 -5.5518937111 -0.32097277045 2.8573877811 -2.2141215801 0.86715096235
          5.4948987961 -5.9022474289 -6.0416329006e-07 0.32540607452 -1.7801667452 -0.15382547677
          0.9664992094 -0.54545235634 0.55122119188 0.12000960857 -0.66374909878 6.4135502953e-07
          1.7528649569 -3.4765558243 3.8313675077e-07 2.9221074581 -3.6811518669 0.34151366353
          0.91726988554 -1.790476799 0.24730919302 3.9618649483 -5.5822005272 -1.3376190111e-07
          1.9353482723 -1.8791202307 0.65550500154 0.31064164639 -1.8159580231 7.5248743769e-07
          2.5760080814 -5.2158470154 -0.49969741702 7.249464035 -6.2578010559 0.44557026029
          5.7227463722 -4.3055653572 0.99289000034 0 0 0
          8.5542945862 -8.1760787964 -0.78755372763 0 0 0
          0 0 0 0.63118910789 -3.2069208622 -0.29064455628
          2.5635147095 -5.3107118607 -0.25400295854 8.5940771103 -8.2428598404 -0.39614215493
          6.6362910271 -7.8212852478 -0.70025038719 5.4897508621 -5.8699173927 0.38326147199
          -0.15587258339 -0.3593287766 0.1256493032 0 0 0
          4.1899061203 -3.8839099407 0.8281558156 0.39109864831 -0.36616301537 0.31371736526
          0.60435587168 -3.3327844143 -0.16286242008 0.12092956901 -0.61590850353 0.13045835495
          -0.2271617651 -0.56443995237 -0.034472394735 1.7697477341 -3.4461205006 0.25754544139
          6.6715340614 -7.8911962509 -0.3505717814 3.9620049 -5.5518946648 0.32097250223
          2.5579721928 -5.3371472359 3.7372328165e-07 8.6002845764 -8.2668056488 -1.4019243508e-06
          -0.31763705611 -1.835744381 -0.22026821971 0.32540583611 -1.7801673412 0.15382704139
          0 0 0 4.9291715622 -7.5405426025 -0.60971915722
          0.98480707407 -1.6822986603 0.49587574601 2.9301660061 -3.5664303303 0.67098426819
          0.59080040455 -3.3566815853 8.6263162302e-07 6.6805477142 -7.9154520035 -8.5167334873e-07
          -0.25890403986 -0.60772883892 1.258423481e-07 -0.41406878829 -1.9009588957 -0.061622127891
          4.9449796677 -7.6098546982 -0.30438047647 7.2071938515 -6.1640315056 0.87986969948
          0 0 0 0.99283504486 -5.0490889549 -0.34969684482
          5.4526963234 -5.7762303352 0.75943470001 -0.41140940785 -1.8689473867 2.0943102754e-06
          0.96176832914 -5.1493639946 -0.18691708148 4.9495615959 -7.6325192451 -2.9192261763e-07
          0.15619724989 -0.53631967306 0.28956237435 2.5635144711 -5.3107132912 0.25400370359
          3.3279817104 -7.3585186005 -0.51561522484 8.5940761566 -8.2428607941 0.39613932371
          -0.083049595356 -3.5226831436 -0.35273516178 1.790299654 -3.3325917721 0.51854556799
          0 0 0 0.60435581207 -3.3327856064 0.16286419332
          3.319937706 -7.4169235229 -0.26096820831 -0.22716240585 -0.56444084644 0.034472901374
          -0.16930994391 -3.5007371902 -0.12197598815 6.6715335846 -7.8911972046 0.35057008266
          3.9479444027 -5.4577474594 0.63669455051 0.33579567075 -1.6562408209 0.3051584065
          9.7853622437 -10.285260201 -0.72334593534 0 0 0
          0.96403360367 -5.1790547371 9.5150085144e-07 7.7362298965 -9.9607954025 -0.65624558926
          9.8155479431 -10.336994171 -0.36280196905 0 0 0
          -0.030329056084 -0.91057533026 -0.12169808894 7.7638998032 -10.015191078 -0.32719439268
          3.3230640888 -7.4386076927 2.9624777653e-07 -0.0659378618 -0.94345706701 -0.0047873952426
          -0.41407206655 -1.9009587765 0.061625298113 -0.066822379827 -3.5524590015 3.2054883832e-06
          4.9449791908 -7.6098556519 0.30437988043 5.8377842903 -9.7212581635 -0.58807879686
          -0.18037810922 -2.1747529507 -0.14111027122 9.8228254318 -10.355621338 -1.7685790681e-06
          0 0 0 -0.20597288013 -2.211388588 -0.082080647349
          5.855714798 -9.7720890045 -0.29263958335 7.7722277641 -10.034158707 -1.1347823374e-06
          -0.062453422695 -0.98988616467 -9.4841096143e-05 2.5760076046 -5.2158489227 0.49969813228
          1.5821501017 -7.2189760208 -0.47838002443 8.5542936325 -8.1760807037 0.7875508666
          0 0 0 0.14725139737 -5.2183899879 -0.48311331868
          0.96176809072 -5.1493649483 0.18691894412 0.6311891675 -3.206923008 0.29064649343
          6.6362905502 -7.821287632 0.70024865866 -0.15587246418 -0.35932904482 -0.12564902008
          0.18130519986 -5.2795658112 -0.20223033428 1.5470479727 -7.2509202957 -0.23137412965
          3.3199374676 -7.4169244766 0.26096880436 -0.16931736469 -3.5007381439 0.12197928131
          5.8612647057 -9.7897539139 -4.9898500265e-07 -0.20762458444 -2.2094695568 -0.00024026536266
          4.045088768 -9.5970201492 -0.53317517042 -0.39170488715 -3.7796871662 -0.20985153317
          -0.31764179468 -1.8357441425 0.22027030587 9.8155479431 -10.336995125 0.36279842257
          4.9291706085 -7.5405445099 0.60971850157 0 0 0
          1.5400226116 -7.2634129524 8.9685028115e-07 0.31784144044 -5.4357104301 1.5622197225e-06
          4.0511007309 -9.635591507 -0.26820075512 7.7638993263 -10.015192032 0.3271920979
          -0.40754756331 -3.7939183712 -0.15217536688 -0.065797187388 -0.94343882799 0.004655870609
          0.99283462763 -5.0490908623 0.34969854355 4.0538406372 -9.6553268433 1.3705461299e-07
          5.8557143211 -9.7720899582 0.29263857007 -0.20533931255 -2.2113199234 0.081748507917
          -0.33632349968 -3.7661838531 -5.5237600463e-05 10.938077927 -12.458640099 -0.68629831076
          0 0 0 10.958133698 -12.506127357 -0.34354129434
          3.3279809952 -7.3585205078 0.51561570168 8.7723903656 -12.148264885 -0.62376499176
          -0.083056531847 -3.5226869583 0.35273453593 0.63465708494 -7.3748230934 -0.53541952372
          -0.016014197841 -1.147474885 -0.054542746395 0.18129377067 -5.2795577049 0.20223276317
          1.5470473766 -7.2509212494 0.23137587309 0 0 0
          8.7926721573 -12.197882652 -0.31056091189 0.66143518686 -7.3523259163 -0.25703623891
          -0.039817109704 -1.1702570915 -0.026592966169 2.3452856541 -9.5164699554 -0.53219491243
          -0.5442789793 -5.5854620934 -0.54352605343 9.78536129 -10.285263062 0.72334235907
          0 0 0 7.7362289429 -9.9607982635 0.65624326468
          10.964927673 -12.522823334 -2.1690493668e-06 -0.51422291994 -5.6228666306 -0.24160133302
          2.3587737083 -9.5472373962 -0.26001766324 -0.030144270509 -0.91052490473 0.12165270001
          6.6907553673 -11.916795731 -0.55890411139 -0.12907209992 -2.485473156 -0.10310796648
          0 0 0 4.0511002541 -9.6355934143 0.26820102334
          -0.40588286519 -3.7935729027 0.1517162025 8.7992591858 -12.214603424 -1.4477370769e-06
          0.67957901955 -7.3460354805 1.1050910871e-06 6.7106633186 -11.962416649 -0.27778935432
          -0.15623436868 -2.5185539722 -0.050263613462 -0.041703041643 -1.1735719442 -0.00010146461864
          5.8377833366 -9.7212610245 0.58807772398 -0.17964424193 -2.1746706963 0.14118777215
          2.3671545982 -9.5708312988 7.7318469494e-07 -0.57748156786 -5.6288919449 -1.2665759641e-07
          1.582149148 -7.2189779282 0.47838163376 6.7154374123 -11.97698307 -7.3151016977e-07
          -0.15768601 -2.5238058567 -0.00014046576689 0.14723500609 -5.2183775902 0.48311263323
          10.958133698 -12.506128311 0.3435369432 4.7203068733 -11.800215721 -0.50319510698
          0 0 0 -0.24989277124 -4.0537238121 -0.14669857919
          4.7405490875 -11.833991051 -0.25098744035 8.7926712036 -12.19788456 0.31055799127
          -0.039683852345 -1.1701915264 0.026429623365 0.66143339872 -7.35232687 0.25703877211
          -0.28223019838 -4.1076903343 -0.078553758562 4.0450878143 -9.5970230103 0.53317540884
          1.0220150948 -9.5094528198 -0.47009152174 2.3587729931 -9.5472393036 0.26001924276
          -0.38932907581 -3.7788610458 0.20894536376 -0.51422125101 -5.6228632927 0.24160346389
          -0.2463953495 -7.6989402771 -0.52476793528 1.0994063616 -9.5743017197 -0.24550430477
          4.7421002388 -11.846446991 -3.2260356164e-08 6.7106628418 -11.962417603 0.27778789401
          -0.15593931079 -2.518340826 0.050005428493 -0.27184477448 -7.6601872444 -0.26942229271
          -0.30056893826 -4.1255345345 -0.00013413233683 12.057034492 -14.696142197 -0.67158526182
          0 0 0 -0.019280215725 -1.2749108076 -0.027646359056
          1.1709032059 -9.6256332397 1.4120569176e-06 2.9792218208 -11.786631584 -0.47165957093
          9.77597332 -14.385333061 -0.60177725554 10.938076973 -12.45864296 0.68629395962
          0 0 0 0 0 0
          -0.28877520561 -7.6275997162 1.6147511133e-06 -0.34126666188 -5.7976222038 -0.16549953818
          12.068341255 -14.747439384 -0.3353176713 3.0090358257 -11.808722496 -0.23708508909
          9.7887802124 -14.438368797 -0.29956501722 8.7723894119 -12.148267746 0.62376201153
          -0.032185837626 -1.295096755 -0.01098801475 0.63465458155 -7.3748254776 0.5354232192
          -0.015868091956 -1.1473795176 0.054472833872 -0.37586021423 -5.8982868195 -0.10495532304
          4.7405486107 -11.833992958 0.25098735094 -0.28210937977 -4.1075439453 0.078310109675
          7.5255465508 -14.135826111 -0.52733546495 2.345284462 -9.5164728165 0.53219652176
          -0.54427659512 -5.5854597092 0.54353439808 0 0 0
          -0.09236188978 -2.6802787781 -0.047954775393 12.073942184 -14.764632225 -2.6128839181e-06
          -0.033656250685 -1.3004893064 -6.6164422606e-05 3.0179443359 -11.82290554 6.3293663288e-07
          7.5438599586 -14.18562603 -0.26117002964 6.6907544136 -11.916798592 0.55890256166
          9.7934370041 -14.455348015 -1.7900454168e-06 -0.1286663264 -2.4851505756 0.10288859904
          -0.37432938814 -5.9039182663 -1.0836513866e-05 -0.10659783334 -2.7144646645 -0.02402061224
          1.099406004 -9.574303627 0.24550722539 -0.271843642 -7.6601886749 0.26942592859
          0.06040616706 -9.7661113739 -0.56132131815 7.5489406586 -14.199425697 -9.7034865121e-07
          -0.1132132709 -2.7254118919 -9.6379662864e-05 0.053801584989 -9.7410612106 -0.25109422207
          5.3445811272 -13.991629601 -0.45331850648 0 0 0
          -0.19027358294 -4.2593669891 -0.056162986904 12.068341255 -14.747440338 0.33531242609
          -0.032135546207 -1.2950270176 0.010873161256 3.0090353489 -11.808724403 0.23708638549
          5.3629703522 -14.025708199 -0.22624771297 4.7203059196 -11.800218582 0.50319504738
          9.7887792587 -14.438369751 0.29956141114 1.5053793192 -11.831212044 -0.47862648964
          -0.49729430676 -7.7407836914 -0.1589885354 -0.24972170591 -4.0536227226 0.1465844512
          -0.20264624059 -4.311776638 -0.028303055093 -0.37562862039 -5.8984160423 0.10488884896
          1.5486400127 -11.844356537 -0.23051448166 -0.52081912756 -7.8466434479 -0.18138250709
          0.040598429739 -9.7494831085 2.1357598143e-06 1.0220143795 -9.5094556808 0.47009477019
          7.5438594818 -14.185627937 0.26116806269 -0.24639323354 -7.6989426613 0.52477294207
          5.3618407249 -14.033576012 -1.9262914464e-07 -0.1065472737 -2.7143788338 0.023845508695
          -0.20696884394 -4.3273706436 -7.3104565672e-05 1.5842115879 -11.862117767 1.3342056491e-06
          -0.45014533401 -7.8460793495 1.9219698515e-05 -0.31180146337 -6.0333881378 -0.056439705193
          3.4159545898 -14.002355576 -0.41816619039 12.057032585 -14.696146011 0.67158001661
          0 0 0 0.05380340293 -9.7410650253 0.25109860301
          -0.019232261926 -1.274818778 0.027567846701 -0.32047453523 -6.1002244949 -0.029695315287
          2.9792211056 -11.786634445 0.47166097164 9.7759723663 -14.385335922 0.60177356005
          3.4400501251 -14.012511253 -0.21189625561 13.174196243 -17.026708603 -0.67088496685
          0 0 0 -0.34088653326 -5.7978081703 0.16533280909
          13.178891182 -17.084663391 -0.33432391286 -0.021484246477 -1.3402841091 -0.0014737935271
          10.768795013 -16.710645676 -0.59105652571 5.3629693985 -14.025710106 0.22624732554
          0 0 0 -0.20257909596 -4.3117451668 0.028171164915
          10.774963379 -16.769670486 -0.2942635715 -0.02394390665 -1.3581323624 -0.00075058615766
          1.5486400127 -11.844358444 0.23051720858 -0.52074623108 -7.8466525078 0.1814212203
          7.5255455971 -14.135828972 0.5273334384 -0.32298958302 -6.1247677803 -2.0192692318e-05
          3.4437055588 -14.021790504 5.2002826578e-07 -0.092307589948 -2.6801843643 0.047840427607
          0.51345825195 -12.082267761 -0.52860534191 -0.06588318944 -2.7860476971 -0.0059918230399
          8.3645210266 -16.442754745 -0.50634968281 -0.89304226637 -10.155608177 -0.60438734293
          13.182620049 -17.10351181 -3.1210990983e-06 0 0 0
          0.54631197453 -12.078691483 -0.25356084108 10.777944565 -16.788156509 -2.1736912004e-06
          -0.02468296513 -1.3638669252 -3.980459951e-05 8.3759765625 -16.499923706 -0.25060334802
          -0.068470425904 -2.8148257732 -0.0022094077431 -0.8236438036 -10.077763557 -0.32155317068
          0.060410499573 -9.7661190033 0.56132626534 0.55812191963 -12.090456963 2.0330514872e-06
          -0.48054003716 -8.0441980362 -0.076537519693 -0.32042714953 -6.1002516747 0.029650062323
          2.0318529606 -14.130649567 -0.47469285131 8.38002491 -16.515949249 -1.2197174328e-06
          5.3445801735 -13.991633415 0.45331808925 3.4400496483 -14.012513161 0.21189731359
          -0.30599719286 -9.9022884369 4.0679205995e-05 -0.069388277829 -2.825091362 -5.4236083088e-05
          -0.19016188383 -4.2593502998 0.056043352932 13.178890228 -17.084665298 0.33431765437
          5.9610729218 -16.248226166 -0.42014309764 -0.48352998495 -8.1215696335 -0.035202510655
          -0.12607145309 -4.3900580406 -0.0041820220649 2.063046217 -14.125893593 -0.22355431318
          1.5053790808 -11.831215858 0.47862938046 -0.49716237187 -7.7408061028 0.1589846313
          0 0 0 -0.12630583346 -4.4273762703 -0.00087387691019
          10.774962425 -16.769672394 0.29425919056 -0.023932868615 -1.3581004143 0.00068099028431
          5.9774551392 -16.291919708 -0.20964574814 -0.4684830308 -8.1046876907 2.5336588806e-05
          2.081171751 -14.134961128 1.1981875332e-06 0.54631251097 -12.07869339 0.25356498361
          5.9807624817 -16.302804947 -3.179959549e-07 -0.12821850181 -4.4420919418 -4.1506147682e-05
          8.3759756088 -16.499925613 0.25060087442 -0.068453073502 -2.8147940636 0.0021099557634
          -0.82364177704 -10.077768326 0.32156011462 -0.31169685721 -6.033457756 0.056383818388
          3.4159536362 -14.00235939 0.41816732287 3.7798187733 -16.190864563 -0.3769941628
          13.174194336 -17.026712418 0.67087864876 0 0 0
          -0.19927679002 -6.191488266 0.0036047606263 -0.021486060694 -1.3402522802 0.0014259750023
          10.768793106 -16.71064949 0.59105211496 -0.48345848918 -8.1216096878 0.035235717893
          2.0630464554 -14.1258955 0.22355677187 3.8015825748 -16.200677872 -0.19031797349
          -0.61408525705 -12.196808815 -0.52718126774 -0.19841206074 -6.2346429825 0.0053856717423
          -0.12628847361 -4.4273662567 0.00079346081475 5.9774546623 -16.291919708 0.20964507759
          -0.47313511372 -12.30785656 -0.2545799911 0.89275932312 -14.261701584 -0.47737345099
          -0.57159501314 -10.207879066 -0.04185898602 14.300639153 -19.483812332 -0.67524719238
          0 0 0 11.760783195 -19.163917542 -0.58882373571
          0.5134589076 -12.082271576 0.52860957384 -0.065863221884 -2.7860219479 0.0059115611948
          8.3645191193 -16.44275856 0.50634711981 -0.67314934731 -10.265884399 -0.036118600518
          0.9071136117 -14.257937431 -0.23106336594 -0.89304196835 -10.155613899 0.60439282656
          14.301502228 -19.546827316 -0.33637937903 0 0 0
          -0.19984382391 -6.2489027977 -1.1179903595e-05 3.8035264015 -16.207437515 4.7722431873e-07
          -0.022020053118 -1.3543716669 0.018956076354 11.762256622 -19.227333069 -0.29346811771
          -0.015460418537 -1.3709111214 0.0077464771457 -0.36005717516 -12.417990685 2.5584647574e-06
          9.2098970413 -18.88451004 -0.49965772033 -0.78647726774 -10.278743744 3.9261623897e-05
          0.90887004137 -14.258587837 1.8932057628e-06 14.303225517 -19.567157745 -3.7256720589e-06
          0 0 0 -0.034100439399 -2.8066680431 0.026585096493
          9.2142028809 -18.947332382 -0.24775180221 11.763629913 -19.247455597 -2.6225150123e-06
          -0.48038694263 -8.0442695618 0.076568894088 2.0318529606 -14.130653381 0.47469544411
          -0.0146579016 -1.376521349 -2.0907031285e-05 -0.028168721125 -2.8327684402 0.013204319403
          5.9610719681 -16.24822998 0.42014232278 -0.12603317201 -4.3900632858 0.0041154609062
          -0.27757653594 -8.2033624649 0.030955126509 2.5071287155 -16.335931778 -0.4464006424
          -0.19838142395 -6.2346553802 -0.0054081389681 3.8015818596 -16.200679779 0.19031892717
          -0.29081070423 -8.2499370575 0.018317520618 2.52202034 -16.315109253 -0.20831128955
          -0.47313466668 -12.307858467 0.25458517671 9.2166261673 -18.9659729 -1.4979009393e-06
          -0.026041861624 -2.8428263664 -2.9238357456e-05 6.6418318748 -18.650320053 -0.40769967437
          -0.67306023836 -10.265874863 0.03627999872 0.90711420774 -14.257939339 0.23106721044
          14.301501274 -19.546829224 0.33637189865 0 0 0
          -0.038811381906 -4.4129652977 0.033298790455 6.6521372795 -18.707052231 -0.20132687688
          11.762255669 -19.227334976 0.2934628427 -0.034105747938 -4.4450044632 0.016802642494
          -0.31265649199 -8.2740859985 2.4409939215e-05 2.5247476101 -16.309547424 1.150235903e-06
          -0.015455721878 -1.3708999157 -0.0077835703269 9.2142019272 -18.94733429 0.24774876237
          6.656504631 -18.722337723 -4.0337073415e-07 -0.03236444667 -4.4582076073 -2.273985956e-05
          3.7798178196 -16.190868378 0.37699505687 -0.045514345169 -14.526220322 -0.47209522128
          -0.028162909672 -2.8327577114 -0.01325960923 -0.19920356572 -6.1915187836 -0.0036273761652
          -0.7232042551 -12.053196907 -0.28107824922 -0.061748534441 -14.521980286 -0.22055922449
          -0.61408376694 -12.19681263 0.52718663216 -1.1458418369 -12.725596428 -0.36010783911
          -0.29077315331 -8.2499485016 -0.018265282735 2.5220205784 -16.31511116 0.20831362903
          0.89276021719 -14.261705399 0.47737744451 -0.57148402929 -10.207903862 0.041992437094
          -0.034338727593 -6.2081227303 0.041188236326 4.2104020119 -18.494503021 -0.3355961442
          14.300638199 -19.483818054 0.67523962259 0 0 0
          11.760781288 -19.163923264 0.5888183713 -0.032693043351 -6.2432751656 0.021963469684
          -0.079934753478 -14.516942978 2.4196017421e-06 -0.42062708735 -10.406199455 0.046305458993
          1.3575028181 -16.449718475 -0.45845034719 4.2286086082 -18.520088196 -0.16722342372
          -0.022023078054 -1.3543653488 -0.018985342234 -1.1019701958 -12.739427567 0.0005215802812
          6.6521363258 -18.707054138 0.20132599771 -0.034095279872 -4.4450016022 -0.016845744103
          1.3374555111 -16.421005249 -0.21580134332 -0.48748776317 -10.516482353 0.029479745775
          9.209895134 -18.884513855 0.49965456128 -0.035170856863 -6.2600517273 -4.1309795051e-06
          4.2287864685 -18.52891922 5.7847648804e-07 -0.034094434232 -2.8066666126 -0.02663047798
          1.3162515163 -16.400531769 1.8693120865e-06 15.433571815 -22.087657928 -0.67820012569
          0 0 0 -0.51996898651 -10.564549446 8.3083556092e-05
          15.433008194 -22.1521492 -0.33815592527 0 0 0
          -0.061747379601 -14.521983147 0.22056417167 12.754051208 -21.766580582 -0.59050685167
          -0.27749019861 -8.2033853531 -0.030912043527 2.5071289539 -16.335935593 0.44640311599
          -0.020192848518 -1.3191200495 0.039459910244 -1.1458764076 -12.725609779 0.36056664586
          12.753185272 -21.831092834 -0.29487162828 -0.0052354941145 -1.3363181353 0.016393546015
          6.6418299675 -18.650323868 0.40769863129 15.433097839 -22.173057556 -4.4617545427e-06
          -0.032677061856 -6.2432785034 -0.021971330047 10.067526817 -21.480049133 -0.50224405527
          0.0010579018854 -2.7401311398 0.059523649514 4.2286076546 -18.520090103 0.1672244817
          0 0 0 2.9786710739 -18.548557281 -0.42253187299
          -0.0029788345564 -8.2104930878 0.044715102762 -0.038786012679 -4.4129738808 -0.033336218446
          0.016172904521 -2.7693612576 0.029566667974 10.066287041 -21.545539856 -0.24972218275
          12.753347397 -21.8520298 -3.1688198305e-06 1.3374564648 -16.421007156 0.21580514312
          -0.016045464203 -8.2517280579 0.026346093044 2.9762301445 -18.508230209 -0.19519485533
          -0.48745715618 -10.516487122 -0.029336005449 -0.003340048017 -1.3415876627 -1.0450173249e-05
          -0.67567765713 -14.780010223 -0.22284705937 10.067044258 -21.565919876 -1.8362962919e-06
          -0.04551255703 -14.526224136 0.47210040689 0.021881498396 -2.7795097828 -1.4974489204e-05
          -0.021763278171 -8.2767963409 1.9887896997e-05 -0.75846010447 -14.918045998 -0.12754483521
          2.9668154716 -18.48932457 1.2760635855e-06 -0.72317028046 -12.05318737 0.28129130602
          15.433008194 -22.152151108 0.33814695477 7.3581018448 -21.225740433 -0.40665990114
          -0.96830058098 -12.769878387 0.23563121259 0 0 0
          0.053169701248 -4.3146123886 0.069825910032 0.30970084667 -16.587757111 -0.45648768544
          0.063980989158 -4.3555812836 0.033574078232 7.3586449623 -21.291807175 -0.20086233318
          12.753184319 -21.831096649 0.29486525059 -0.97811377048 -12.930490494 0.072506725788
          0.24446614087 -16.557291031 -0.21297468245 -0.0052333702333 -1.3363153934 -0.016412459314
          -0.034296832979 -6.2081332207 -0.041195467114 4.2104005814 -18.494506836 0.33559694886
          -0.76693826914 -14.920686722 2.3614343263e-06 -0.42055368423 -10.406184196 -0.046180788428
          1.3575041294 -16.44972229 0.45845431089 7.3597044945 -21.31014061 -5.1631559472e-07
          10.066286087 -21.545541763 0.24971845746 -1.0212033987 -13.056904793 3.873096648e-05
          0.016176689416 -2.7693588734 -0.029595054686 0.069305181503 -4.3720598221 -1.1465460375e-05
          -0.016025422141 -8.2517318726 -0.026307944208 2.9762303829 -18.508232117 0.19519741833
          0.19266812503 -16.533573151 2.5143726816e-06 1.8616945744 -18.630565643 -0.45968532562
          0.10235969722 -10.445485115 0.027596384287 1.8060114384 -18.571720123 -0.2115740031
          0.071621514857 -10.493294716 0.025073932484 15.433568954 -22.087663651 0.67819106579
          0 0 0 -0.75845658779 -14.918050766 0.12754967809
          0.13591921329 -6.0857357979 0.076200984418 4.7231316566 -21.00920105 -0.29752296209
          0.13885819912 -6.1311588287 0.034445628524 12.754049301 -21.766586304 0.59050035477
          -0.020195186138 -1.3191223145 -0.039475735277 4.7250442505 -21.059143066 -0.1518151015
          7.3586435318 -21.291809082 0.20086121559 -0.97808408737 -12.930427551 -0.072350621223
          0.063987441361 -4.3555808067 -0.033596042544 0.24446767569 -16.557292938 0.21297979355
          1.758236289 -18.526895523 2.0312829747e-06 0.05814871192 -10.536197662 3.2262687455e-05
          10.06752491 -21.480054855 0.50224018097 0.0010625571012 -2.7401361465 -0.059548035264
          2.9786715508 -18.548561096 0.42253446579 0.14229060709 -6.154853344 -1.4722426158e-06
          -0.0029289778322 -8.2104911804 -0.044680826366 4.7175354958 -21.072967529 7.4342301559e-07
          16.564722061 -24.841762543 -0.67728632689 0 0 0
          -0.67567527294 -14.780014038 0.22285301983 1.806012392 -18.571722031 0.21157813072
          0 0 0 13.748285294 -24.522388458 -0.59301578999
          -2.5989296436 -14.784110069 -0.047933295369 0.071643032134 -10.49328804 -0.025005063042
          -0.019086673856 -1.2297589779 0.064225353301 -0.51042336226 -16.871730804 -0.46249857545
          16.564239502 -24.904384613 -0.33819717169 7.3580994606 -21.225744247 0.40665858984
          13.746756554 -24.584794998 -0.29654535651 0.0077917343006 -1.2488895655 0.027059178799
          -0.96829146147 -12.769823074 -0.23548622429 -2.6344358921 -14.912940979 -0.042796287686
          0.053185220808 -4.3146190643 -0.069844886661 3.535140276 -20.849628448 -0.41589811444
          0.13886812329 -6.1311593056 -0.034448258579 0.30970323086 -16.587760925 0.45649302006
          0.23736041784 -8.0450658798 0.07263443619 4.72504282 -21.059144974 0.15181644261
          -0.58341151476 -16.861129761 -0.2006482929 0.23755715787 -8.1007900238 0.035435982049
          3.514952898 -20.790651321 -0.19019338489 10.9331007 -24.23661232 -0.50967228413
          16.563467026 -24.924926758 -5.3639455473e-06 0.04418072477 -2.5889492035 0.10636348277
          0 0 0 10.928190231 -24.300476074 -0.25408419967
          0.066067785025 -2.6193811893 0.055004149675 13.746254921 -24.60541153 -3.8473031054e-06
          0.79393035173 -18.740570068 -0.48523283005 -2.6624457836 -14.943622589 3.3858661936e-06
          -0.642406106 -16.853092194 2.9250720672e-06 0.43872734904 -13.005350113 -0.10764139146
          0.0098980348557 -1.2538745403 -4.9308114285e-06 0.66902416945 -18.66553688 -0.21862661839
          3.4989278316 -20.764883041 1.6262139297e-06 0.33888244629 -13.043748856 -0.065293781459
          0.23422278464 -8.1271467209 9.6004196166e-06 1.8616962433 -18.630569458 0.45968961716
          10.927399635 -24.321249008 -2.2753249596e-06 0.1023953855 -10.445458412 -0.027532113716
          0.07373148948 -2.6262397766 -7.1097588261e-06 8.0953941345 -23.979278564 -0.41873395443
          16.564237595 -24.90438652 0.33818641305 0.55768609047 -18.598468781 2.7344995033e-06
          0.133378461 -4.1130709648 0.12564966083 0.13594438136 -6.0857381821 -0.076202891767
          0.39938750863 -13.120218277 3.0689741834e-05 4.7231297493 -21.009204865 0.29752388597
          0 0 0 8.0873727798 -24.04649353 -0.20831730962
          0.15899275243 -4.1665811539 0.066398598254 13.746754646 -24.584796906 0.29653763771
          -2.6344327927 -14.912944794 0.042802870274 -0.58340954781 -16.861131668 0.20065426826
          0.0077929445542 -1.248889327 -0.027068162337 3.5149531364 -20.790653229 0.19019658864
          0.23756940663 -8.1007890701 -0.035416793078 10.928188324 -24.300477982 0.25407961011
          8.0863132477 -24.066602707 -6.8949185561e-07 2.4377918243 -20.852888107 -0.49491849542
          0.44085672498 -10.155076027 0.046517506242 0.17116601765 -4.1834230423 -5.3904018387e-06
          0.066070236266 -2.6193811893 -0.055017758161 0.42166262865 -10.23046875 0.01786798425
          0.66902601719 -18.665538788 0.21863216162 2.3434431553 -20.771699905 -0.22048267722