<?xml version="1.0"?>
<VTKFile type="UnstructuredGrid" version="0.1" byte_order="LittleEndian" header_type="UInt32" compressor="vtkZLibDataCompressor">
  <UnstructuredGrid>
    <Piece NumberOfPoints="6405" NumberOfCells="4800">
      <PointData>
        <DataArray type="Float32" Name="DISPLACEMENT" NumberOfComponents="3" ComponentName0="X-DISPLACEMENT" ComponentName1="Y-DISPLACEMENT" ComponentName2="Z-DISPLACEMENT" format="ascii" RangeMin="0" RangeMax="326.09448237">
          0 0 0 0 0 0
          2.5972230434 -1.5557441711 -1.1867637634 0 0 0
          1.5580331087 -0.89700192213 -0.84249311686 0 0 0
          2.3850312233 -1.7549263239 -0.46690732241 1.3585041761 -1.0641508102 -0.34321245551
          0 0 0 4.6760983467 -3.109210968 -1.2004455328
          0 0 0 4.6185536385 -3.3324642181 -0.61424267292
          3.1291015148 -2.6088962555 -0.94053328037 0 0 0
          0 0 0 2.3962929249 -1.8136277199 -2.8118160245e-08
          0.92448580265 -0.58590483665 -0.54980438948 1.355633378 -1.091853261 -1.4436858653e-10
          3.0631937981 -2.7894070148 -0.47882130742 0.77975034714 -0.7420694828 -0.22820952535
          4.5688419342 -3.3924968243 6.2613256802e-09 1.9071438313 -2.2342247963 -0.6758838892
          0 0 0 3.0244731903 -2.8446729183 5.2467562739e-08
          1.8292822838 -2.3940312862 -0.34682115912 0 0 0
          6.4984145164 -5.1845393181 -1.0991802216 0 0 0
          0.77761983871 -0.7638002038 1.4456228214e-08 0 0 0
          0 0 0 2.3850314617 -1.7549263239 0.4669072926
          4.5795869827 -4.7257633209 -0.90192008018 6.5247459412 -5.3394913673 -0.55906379223
          0.22620953619 -0.45837751031 -0.24122019112 1.3585041761 -1.0641509295 0.34321248531
          4.5980639458 -4.8691067696 -0.45903685689 0.1032820493 -0.62407749891 -0.12128226459
          1.8018000126 -2.4404993057 8.3591913835e-08 4.6185536385 -3.3324642181 0.61424273252
          0 0 0 0 0 0
          0.64996850491 -2.0329039097 -0.4432130456 2.9786543846 -4.3884830475 -0.71967273951
          6.507437706 -5.3936152458 9.0875971637e-08 3.0631940365 -2.7894072533 0.47882142663
          2.9624626637 -4.5170602798 -0.36497536302 0.77975040674 -0.7420694828 0.22820957005
          4.5887680054 -4.9157991409 1.5315949042e-07 0.56256437302 -2.1774647236 -0.23104502261
          0.088215567172 -0.64854931831 2.3886773448e-08 0 0 0
          8.1199617386 -7.5185961723 -0.95463389158 0 0 0
          5.9434270859 -7.1063432693 -0.8250900507 1.8292825222 -2.3940312862 0.34682133794
          8.1736307144 -7.6211843491 -0.48396635056 2.5972232819 -1.5557442904 1.1867637634
          0 0 0 0 0 0
          0.54444038868 -2.2229895592 1.0539954332e-07 2.9534478188 -4.5585536957 2.0098443088e-07
          -0.34383949637 -0.59040522575 -0.035418577492 5.9894938469 -7.2065668106 -0.41604948044
          1.5580333471 -0.89700204134 0.84249317646 1.3797246218 -4.1529073715 -0.56168013811
          0 0 0 6.5247459412 -5.3394913673 0.55906397104
          -0.44909223914 -0.74235624075 -0.033987682313 1.3450918198 -4.2659730911 -0.2815861702
          4.5980644226 -4.8691067696 0.45903715491 0.10328211635 -0.62407749891 0.12128232419
          4.0689067841 -6.7839980125 -0.7004005909 -0.3404956162 -2.0510165691 -0.28893759847
          8.1740207672 -7.6572146416 2.2273695777e-07 4.6760983467 -3.1092112064 1.2004455328
          0 0 0 0 0 0
          4.0853629112 -6.8783988953 -0.35258257389 3.1291017532 -2.6088964939 0.94053345919
          5.9967923164 -7.2413568497 2.9664457202e-07 -0.4143371284 -2.1726965904 -0.14337924123
          0.92448592186 -0.58590489626 0.54980450869 -0.46776121855 -0.78947597742 2.4688720401e-08
          1.3366209269 -4.3027477264 2.4170466872e-07 2.9624629021 -4.5170602798 0.36497578025
          0.56256455183 -2.1774647236 0.23104526103 4.0870718956 -6.9108929634 3.5884784211e-07
          1.9071441889 -2.2342250347 0.67588412762 -0.41898289323 -2.2213089466 1.2678843575e-07
          2.2674293518 -6.5382819176 -0.58547765017 8.1736316681 -7.6211843491 0.48396679759
          6.4984149933 -5.1845393181 1.09918046 0 0 0
          9.5588235855 -10.00571537 -0.83395373821 0 0 0
          0 0 0 0.0065237809904 -4.0564651489 -0.40160909295
          2.2660012245 -6.6261897087 -0.29139462113 9.6121912003 -10.071709633 -0.41979733109
          7.2118587494 -9.6280670166 -0.74860328436 5.9894938469 -7.2065668106 0.41605007648
          -1.1643036604 -0.82520568371 0.13596634567 0 0 0
          4.5795874596 -4.7257637978 0.90192043781 0.22620970011 -0.45837751031 0.24122029543
          -0.024277785793 -4.1611618996 -0.20471835136 -0.44909211993 -0.74235624075 0.033987741917
          -1.3125834465 -0.94772815704 0.021085105836 1.3450921774 -4.2659730911 0.28158667684
          7.259677887 -9.6967544556 -0.3747715652 4.0853633881 -6.8783988953 0.35258328915
          2.264742136 -6.654545784 4.1583029997e-07 9.6202707291 -10.095565796 3.9646053551e-07
          -1.429697752 -2.2294683456 -0.2169059515 -0.41433686018 -2.1726965904 0.14337950945
          0 0 0 5.1327037811 -9.3191728592 -0.65945839882
          0.64996886253 -2.0329039097 0.44321334362 2.9786550999 -4.3884835243 0.71967321634
          -0.02739453502 -4.1948313713 2.842838569e-07 7.2716836929 -9.7205715179 4.7744453013e-07
          -1.3393156528 -0.99536883831 2.0711796722e-08 -1.5115777254 -2.3052449226 -0.099480964243
          5.1579627991 -9.3867235184 -0.33018094301 8.1199617386 -7.5185966492 0.95463436842
          0 0 0 0.53762078285 -6.3796129227 -0.44323581457
          5.9434275627 -7.1063432693 0.82509070635 -1.512567997 -2.3484752178 1.3156184764e-07
          0.52231007814 -6.4666442871 -0.22772011161 5.1642217636 -9.4093017578 5.4646102399e-07
          -0.34383919835 -0.59040516615 0.035418704152 2.2660017014 -6.6261897087 0.2913954556
          3.1605243683 -9.0808525085 -0.56986957788 9.6121921539 -10.071709633 0.41979813576
          -1.2681075335 -4.17060709 -0.34355524182 1.3797252178 -4.1529078484 0.56168067455
          0 0 0 -0.02427745983 -4.1611618996 0.20471893251
          3.1672310829 -9.1448259354 -0.28548583388 -1.3125832081 -0.94772809744 -0.02108505182
          -1.3156528473 -4.2356915474 -0.15930537879 7.2596783638 -9.6967544556 0.37477251887
          4.0689072609 -6.7839980125 0.70040130615 -0.34049510956 -2.0510165691 0.28893792629
          10.84655571 -12.582396507 -0.74268436432 0 0 0
          0.52146041393 -6.4913434982 4.6783472385e-07 8.3844509125 -12.238283157 -0.68532985449
          10.890425682 -12.626029968 -0.372310251 0 0 0
          -2.2496840954 -1.0786587 0.18523658812 8.4243164062 -12.285380363 -0.34174492955
          3.170116663 -9.1650123596 6.0899412802e-07 -2.4270153046 -1.1434988976 0.048781901598
          -1.5115773678 -2.3052449226 0.099481239915 -1.3147236109 -4.2717790604 3.0012850516e-07
          5.1579632759 -9.3867235184 0.3301820457 6.1399536133 -11.954006195 -0.6219894886
          -2.5419671535 -2.4841268063 -0.26230153441 10.899849892 -12.641824722 6.0759606413e-07
          0 0 0 -2.6446864605 -2.4856357574 -0.10934278369
          6.1634788513 -12.00004673 -0.31028965116 8.4358959198 -12.301528931 6.9110689083e-07
          -2.3922951221 -1.2141467333 -1.0602712486e-08 2.2674300671 -6.5382819176 0.58547854424
          1.1653182507 -8.9096727371 -0.48020595312 9.5588245392 -10.00571537 0.83395457268
          0 0 0 -0.91351413727 -6.4350547791 -0.42147803307
          0.52231049538 -6.4666442871 0.22772106528 0.0065244371071 -4.0564651489 0.401609689
          7.2118592262 -9.6280679703 0.74860429764 -1.1643031836 -0.8252056241 -0.13596621156
          -0.95141798258 -6.4802742004 -0.19769316912 1.150844574 -8.9678182602 -0.24405156076
          3.1672315598 -9.1448259354 0.28548708558 -1.3156524897 -4.2356920242 0.15930598974
          6.1709198952 -12.014977455 7.6072853972e-07 -2.6420707703 -2.5170278549 9.2727518108e-08
          4.0102338791 -11.743646622 -0.5623986721 -2.3362596035 -4.4588532448 -0.4283605516
          -1.429697156 -2.2294683456 0.21690627933 10.890426636 -12.626029968 0.37231147289
          5.1327047348 -9.3191728592 0.65945953131 0 0 0
          1.1523393393 -8.9867038727 6.6292204792e-07 -0.94742876291 -6.5104560852 4.8819987342e-07
          4.0166215897 -11.781846046 -0.28190290928 8.4243173599 -12.285380363 0.34174630046
          -2.4135439396 -4.4412994385 -0.18450559676 -2.4270150661 -1.1434987783 -0.048781905323
          0.53762155771 -6.3796129227 0.44323676825 4.0210027695 -11.795546532 8.2443762039e-07
          6.1634793282 -12.00004673 0.31029120088 -2.6446859837 -2.4856357574 0.10934299976
          -2.4071669579 -4.4678249359 2.6725942348e-07 12.014473915 -15.213191032 -0.67794668674
          0 0 0 12.047140121 -15.24379921 -0.33914843202
          3.1605250835 -9.0808534622 0.56987082958 9.4672107697 -14.898620605 -0.6375014782
          -1.2681068182 -4.17060709 0.34355589747 -0.41286462545 -8.920167923 -0.49940577149
          -0.6198246479 -1.68290627 0.31349423528 -0.95141750574 -6.4802746773 0.19769416749
          1.1508450508 -8.9678192139 0.24405291677 0 0 0
          9.4975385666 -14.932100296 -0.31720662117 -0.44115108252 -8.937874794 -0.23902024329
          -0.60696214437 -1.7204295397 0.11583469063 1.8774343729 -11.58555603 -0.53320485353
          -1.9667514563 -6.7207670212 -0.55797439814 10.84655571 -12.582396507 0.74268555641
          0 0 0 8.3844518661 -12.238283157 0.685331285
          12.055509567 -15.254890442 8.5239418013e-07 -2.0260584354 -6.6759176254 -0.24793767929
          1.8662493229 -11.609431267 -0.26480233669 -2.2496836185 -1.0786585808 -0.18523645401
          7.0841617584 -14.6460495 -0.59290266037 -1.5173941851 -2.9782013893 0.12043692172
          0 0 0 4.0166220665 -11.781846046 0.28190457821
          -2.4135434628 -4.4412994385 0.184506163 9.5068969727 -14.943408966 9.3440894489e-07
          -0.4326120019 -8.9603319168 6.9549059845e-07 7.1050319672 -14.676675797 -0.2945767045
          -1.6186074018 -3.045655489 0.031283318996 -0.63148701191 -1.7446233034 4.1229032632e-08
          6.139954567 -11.954007149 0.62199109793 -2.5419664383 -2.4841270447 0.26230183244
          1.8683882952 -11.621470451 8.8750135774e-07 -2.0139575005 -6.6973419189 4.6868598247e-07
          1.1653190851 -8.9096727371 0.48020735383 7.1117310524 -14.686470032 1.0038013443e-06
          -1.6006461382 -3.0503492355 1.9968611298e-07 -0.91351318359 -6.4350547791 0.42147907615
          12.047141075 -15.24379921 0.33915016055 4.8264932632 -14.477754593 -0.55765873194
          0 0 0 -2.4540820122 -4.8869886398 -0.21128693223
          4.8371067047 -14.496227264 -0.27826336026 9.4975395203 -14.932100296 0.31720849872
          -0.60696208477 -1.7204295397 -0.11583458632 -0.44115051627 -8.937874794 0.2390216738
          -2.5530753136 -4.9550061226 -0.1596750468 4.0102348328 -11.743647575 0.56240034103
          0.20464871824 -11.567440987 -0.57222789526 1.8662499189 -11.609431267 0.26480415463
          -2.3362586498 -4.4588532448 0.42836117744 -2.0260577202 -6.6759176254 0.24793866277
          -1.4743353128 -9.1994190216 -0.66279298067 0.19424666464 -11.560030937 -0.2780828774
          4.8413977623 -14.504771233 1.0699883433e-06 7.105032444 -14.676675797 0.29457870126
          -1.6186072826 -3.045655489 -0.031282916665 -1.5055382252 -9.1366252899 -0.3055408299
          -2.4551231861 -4.9368524551 3.407475333e-07 13.097711563 -17.873865128 -0.6362015605
          0 0 0 -0.39233323932 -1.9156727791 0.21852295101
          0.20565162599 -11.571012497 9.4237225312e-07 2.6603133678 -14.365643501 -0.56459653378
          10.480234146 -17.576978683 -0.60244512558 12.014474869 -15.213191986 0.67794841528
          0 0 0 0 0 0
          -1.4870738983 -9.1521320343 7.0623065085e-07 -2.7085068226 -7.1535873413 -0.71116065979
          13.119726181 -17.898815155 -0.31783005595 2.6631433964 -14.365564346 -0.2777017653
          10.501592636 -17.604255676 -0.29946234822 9.4672117233 -14.898620605 0.63750338554
          -0.38679900765 -1.9047641754 0.096767731011 -0.41286358237 -8.920167923 0.49940726161
          -0.61982440948 -1.68290627 -0.31349402666 -2.7691731453 -7.0588130951 -0.34684729576
          4.8371076584 -14.496228218 0.27826550603 -2.5530750751 -4.9550061226 0.15967576206
          7.9692091942 -17.340774536 -0.56386739016 1.8774354458 -11.58555603 0.53320676088
          -1.9667503834 -6.7207670212 0.55797541142 0 0 0
          -0.84992414713 -3.6077048779 0.12881405652 13.126361847 -17.90760994 1.1240839513e-06
          -0.39297330379 -1.9223353863 1.0147892482e-07 2.6665587425 -14.371720314 1.142867518e-06
          7.9876899719 -17.364280701 -0.27969315648 7.0841627121 -14.6460495 0.59290468693
          10.508370399 -17.612939835 1.2006969428e-06 -1.5173938274 -2.9782016277 -0.12043651193
          -2.751740694 -7.0514440536 4.8979467238e-07 -0.90580004454 -3.6335222721 0.077306009829
          0.1942473501 -11.560031891 0.27808481455 -1.5055376291 -9.1366252899 0.30554229021
          -0.92010819912 -11.844509125 -0.72619789839 7.9928851128 -17.370693207 1.2688118431e-06
          -0.90912652016 -3.6447412968 2.7898838084e-07 -0.91993248463 -11.780106544 -0.34346914291
          5.581580162 -17.201429367 -0.53412032127 0 0 0
          -1.3300045729 -5.3932323456 -0.0028424216434 13.119727135 -17.898815155 0.31783232093
          -0.38679894805 -1.9047641754 -0.096767514944 2.6631441116 -14.3655653 0.27770408988
          5.5969452858 -17.210578918 -0.26665967703 4.8264946938 -14.477754593 0.55766093731
          10.501592636 -17.604257584 0.29946476221 0.89147812128 -14.36349678 -0.61004447937
          -2.290946722 -9.6519947052 -0.83047389984 -2.4540815353 -4.8869886398 0.2112878114
          -1.4133118391 -5.4714360237 -0.0082172807306 -2.7691726685 -7.0588130951 0.34684827924
          0.89787209034 -14.339681625 -0.29918810725 -2.3069663048 -9.5471487045 -0.40939831734
          -0.89972406626 -11.787631035 9.8327336673e-07 0.20464996994 -11.56744194 0.57222986221
          7.9876904488 -17.364280701 0.27969568968 -1.4743341208 -9.1994199753 0.66279453039
          5.6002674103 -17.214752197 1.3366511666e-06 -0.90579992533 -3.6335222721 -0.077305436134
          -1.4463324547 -5.4873666763 4.9515654155e-07 0.90936100483 -14.342111588 1.2133713199e-06
          -2.2956652641 -9.5353908539 7.630383152e-07 -1.791851759 -7.4016461372 -0.10112870485
          3.3843007088 -17.151720047 -0.5481441617 13.097712517 -17.873865128 0.63620382547
          0 0 0 -0.91993182898 -11.780106544 0.34347113967
          -0.3923330009 -1.9156727791 -0.21852266788 -1.8963758945 -7.5362820625 -0.12146379054
          2.6603147984 -14.365643501 0.56459891796 10.4802351 -17.576980591 0.60244756937
          3.3985304832 -17.140489578 -0.27249485254 14.133348465 -20.559228897 -0.61416113377
          0 0 0 -2.7085058689 -7.1535873413 0.71116173267
          14.145740509 -20.583871841 -0.30638706684 -0.21201707423 -2.0259709358 0.12921132147
          11.451043129 -20.268316269 -0.57952797413 5.5969457626 -17.210578918 0.26666235924
          0 0 0 -1.4133116007 -5.4714360237 0.0082182688639
          11.463734627 -20.29488945 -0.28800860047 -0.19661954045 -2.0006196499 0.057402141392
          0.8978728652 -14.339681625 0.29919055104 -2.3069658279 -9.5471487045 0.40939986706
          7.9692101479 -17.340774536 0.56386995316 -1.9027020931 -7.5377445221 7.5419183077e-07
          3.4026958942 -17.143415451 1.4123191932e-06 -0.8499237299 -3.6077051163 -0.12881344557
          -0.33954253793 -14.619954109 -0.73920398951 -0.43703392148 -3.8654379845 0.11597203463
          8.8169651031 -20.029354095 -0.53843420744 -1.7988430262 -12.308712959 -0.87075471878
          14.150426865 -20.592098236 1.4110732991e-06 0 0 0
          -0.31842640042 -14.560919762 -0.35625514388 11.468143463 -20.302713394 1.4788720364e-06
          -0.20171847939 -2.0062513351 1.573520052e-07 8.8305549622 -20.052114487 -0.26703995466
          -0.45701119304 -3.8632054329 0.064123265445 -1.7834089994 -12.218571663 -0.43099415302
          -0.92010694742 -11.844509125 0.72619992495 -0.29951545596 -14.561303139 1.2637148075e-06
          -2.4535148144 -9.9795570374 -0.4226937294 -1.8963757753 -7.5362820625 0.12146526575
          1.5682119131 -17.207357407 -0.61524045467 8.834608078 -20.057117462 1.5442149106e-06
          5.5815811157 -17.201429367 0.53412300348 3.3985311985 -17.140489578 0.27249768376
          -1.7685389519 -12.205452919 1.0501294128e-06 -0.4616073966 -3.8716804981 3.825569479e-07
          -1.330004096 -5.3932323456 0.002843413502 14.145741463 -20.583871841 0.30638989806
          6.2707877159 -19.886924744 -0.50399297476 -2.5354189873 -10.081022263 -0.31742063165
          -0.70557653904 -5.7329640388 0.074567124248 1.5856004953 -17.173028946 -0.30185604095
          0.89147949219 -14.36349678 0.61004698277 -2.2909455299 -9.6519947052 0.83047544956
          0 0 0 -0.74751865864 -5.7765021324 0.040198601782
          11.463734627 -20.29488945 0.2880115509 -0.19661946595 -2.0006196499 -0.057401824743
          6.2846159935 -19.894128799 -0.25205174088 -2.4351787567 -10.0268507 9.6806900274e-07
          1.5977309942 -17.173290253 1.4804883222e-06 -0.31842571497 -14.560919762 0.35625770688
          6.2873668671 -19.895853043 1.6117732002e-06 -0.75671875477 -5.7981796265 6.4056666815e-07
          8.8305549622 -20.052114487 0.2670430243 -0.45701104403 -3.8632054329 -0.064122490585
          -1.7834084034 -12.218571663 0.43099626899 -1.7918512821 -7.4016466141 0.10113009065
          3.3843021393 -17.151720047 0.54814702272 3.9820652008 -19.872449875 -0.51744347811
          14.133349419 -20.559228897 0.61416393518 0 0 0
          -1.0225590467 -7.8544979095 0.0099547849968 -0.21201679111 -2.0259711742 -0.12921094894
          11.451044083 -20.268316269 0.57953095436 -2.5354189873 -10.081022263 0.3174225986
          1.5856013298 -17.173028946 0.30185902119 3.9980499744 -19.855487823 -0.25959429145
          -1.2785331011 -15.071808815 -0.86461812258 -1.0720522404 -7.9493875504 0.0074170115404
          -0.74751847982 -5.7765021324 -0.040197331458 6.2846164703 -19.894130707 0.25205495954
          -1.2438524961 -14.996840477 -0.42615425587 0.24976213276 -17.443330765 -0.71949833632
          -2.5927426815 -12.829318047 -0.96071439981 15.150429726 -23.280780792 -0.60740613937
          0 0 0 12.402710915 -22.990222931 -0.56923723221
          -0.33954125643 -14.619955063 0.73920655251 -0.43703344464 -3.8654379845 -0.11597124487
          8.8169660568 -20.029354095 0.53843730688 -2.5766911507 -12.750535965 -0.49503558874
          0.28089123964 -17.390365601 -0.3522208035 -1.7988419533 -12.308712959 0.87075680494
          15.154840469 -23.307769775 -0.30278494954 0 0 0
          -1.0866807699 -7.9790358543 9.0613480097e-07 4.0021338463 -19.856660843 1.6833160998e-06
          -0.062309466302 -2.0466461182 0.051549378783 12.407598495 -23.018491745 -0.28305655718
          -0.048460651189 -2.0174040794 0.022106729448 -1.2277332544 -14.984182358 1.3118971083e-06
          9.6571092606 -22.740814209 -0.52579063177 -2.5631997585 -12.725283623 1.1452139006e-06
          0.29846146703 -17.386104584 1.5218805629e-06 15.157552719 -23.316490173 1.69796715e-06
          0 0 0 -0.10731292516 -3.9257411957 0.066493116319
          9.6642036438 -22.765611649 -0.26076680422 12.40994072 -23.026735306 1.7550808025e-06
          -2.453514576 -9.9795570374 0.42269593477 1.5682132244 -17.207357407 0.61524343491
          -0.04815582931 -2.0196793079 2.1397144678e-07 -0.099203087389 -3.9111604691 0.035161063075
          6.2707886696 -19.886924744 0.50399619341 -0.7055760622 -5.7329640388 -0.07456587255
          -1.3086485863 -10.274531364 -0.034680280834 2.1832938194 -19.987348557 -0.6021630168
          -1.072052002 -7.9493875504 -0.0074152252637 3.9980504513 -19.855487823 0.25959765911
          -1.3822094202 -10.426362038 -0.051963180304 2.2077653408 -19.949144363 -0.29550388455
          -1.2438519001 -14.996840477 0.42615687847 9.6674184799 -22.771297455 1.8155468524e-06
          -0.096552789211 -3.9157936573 4.8335562042e-07 6.9476008415 -22.567298889 -0.48812475801
          -2.5766906738 -12.750535965 0.49503785372 0.2808919549 -17.390365601 0.35222384334
          15.154841423 -23.307769775 0.30278834701 0 0 0
          -0.14575642347 -5.8404040337 0.073329076171 6.9562597275 -22.577615738 -0.24334642291
          12.407598495 -23.018491745 0.28306007385 -0.14198677242 -5.8607583046 0.03926987946
          -1.4098203182 -10.470907211 1.1687567394e-06 2.2214055061 -19.948869705 1.7315853711e-06
          -0.048460587859 -2.0174040794 -0.02210630849 9.6642045975 -22.765611649 0.2607704103
          6.9591245651 -22.579500198 1.8796949917e-06 -0.14142306149 -5.8767743111 7.6628407442e-07
          3.9820663929 -19.872449875 0.51744687557 -0.75105255842 -17.858726501 -0.82102739811
          -0.099202953279 -3.9111602306 -0.035160098225 -1.0225585699 -7.8544979095 -0.0099530471489
          -2.0680804253 -15.610836983 -0.96208494902 -0.70974493027 -17.799057007 -0.40521833301
          -1.278531909 -15.071809769 0.86462074518 -2.0320138931 -15.536856651 -0.48390492797
          -1.3822094202 -10.426362038 0.051965478808 2.2077662945 -19.949144363 0.29550734162
          0.24976341426 -17.443330765 0.71950131655 -2.5927417278 -12.829318047 0.96071666479
          -0.17441608012 -7.9627099037 0.082283526659 4.5098018646 -22.532157898 -0.49562183022
          15.150430679 -23.280780792 0.60740947723 0 0 0
          12.402711868 -22.990222931 0.56924074888 -0.17479738593 -8.0281963348 0.041320104152
          -0.69386726618 -17.78783226 1.5389882719e-06 -1.8062976599 -13.090295792 -0.18488900363
          0.81970888376 -20.212188721 -0.68656259775 4.5231332779 -22.514825821 -0.2484536171
          -0.062309145927 -2.0466461182 -0.051548905671 -2.0162775517 -15.516086578 1.3525516351e-06
          6.9562602043 -22.577615738 0.243350178 -0.14198663831 -5.8607583046 -0.039268366992
          0.85349833965 -20.166021347 -0.33931443095 -1.9344059229 -13.314816475 -0.24432422221
          9.6571102142 -22.740814209 0.52579420805 -0.17473766208 -8.0648202896 1.0291822719e-06
          4.5267186165 -22.514883041 1.9432868612e-06 -0.10731246322 -3.9257411957 -0.066492162645
          0.87019711733 -20.159791946 1.7510637917e-06 16.166650772 -26.052799225 -0.61086797714
          0 0 0 -1.8390853405 -13.276303291 1.3021846144e-06
          16.165431976 -26.082960129 -0.3046413064 0 0 0
          -0.70974427462 -17.799058914 0.40522140265 13.350214005 -25.760007858 -0.56909179688
          -1.3086482286 -10.274531364 0.034682359546 2.1832952499 -19.987348557 0.60216647387
          0.087723203003 -1.9932018518 -0.027026008815 -2.0320134163 -15.536857605 0.48390763998
          13.349520683 -25.79066658 -0.28338351846 0.098673261702 -1.9635858536 -0.013317149132
          6.9476017952 -22.567298889 0.4881284833 16.166498184 -26.09270668 1.9686701762e-06
          -0.17479728162 -8.0281963348 -0.041318077594 10.511335373 -25.499666214 -0.52504885197
          0.23020276427 -3.8103070259 0.014447724447 4.5231337547 -22.514825821 0.2484575063
          0 0 0 2.7322058678 -22.661653519 -0.57987707853
          -0.20758530498 -10.412204742 0.078395023942 -0.14575596154 -5.8404040337 -0.073327615857
          0.26331725717 -3.7976219654 0.0037231349852 10.513397217 -25.527368546 -0.26065114141
          13.350211143 -25.800020218 2.015166956e-06 0.85349905491 -20.166023254 0.33931791782
          -0.20731642842 -10.550635338 0.044278170913 2.7592842579 -22.62430954 -0.2853064537
          -1.9344061613 -13.314816475 0.24432688951 0.10380269587 -1.9667744637 2.7241412681e-07
          -1.5286339521 -18.399484634 -0.92364245653 10.515453339 -25.534879684 2.0695770218e-06
          -0.75105148554 -17.858726501 0.82103043795 0.27213263512 -3.8017323017 5.8052643226e-07
          -0.20812350512 -10.595456123 1.2563267546e-06 -1.4843939543 -18.332748413 -0.4579347074
          2.7736041546 -22.622619629 1.9691326543e-06 -2.0680794716 -15.610837936 0.96208763123
          16.165431976 -26.082960129 0.30464524031 7.6758971214 -25.287931442 -0.48646426201
          -2.4759685993 -16.305356979 -1.1331744194 0 0 0
          0.42424762249 -5.6608366966 0.066615946591 -0.24299187958 -20.576097488 -0.76223057508
          0.46773460507 -5.6857118607 0.03364854306 7.6810460091 -25.304515839 -0.24138382077
          13.349520683 -25.79066658 0.28338754177 -2.4425604343 -16.204902649 -0.56160980463
          -0.20304086804 -20.529035568 -0.37915459275 0.098673298955 -1.9635858536 0.013317676261
          -0.17441569269 -7.9627099037 -0.08228161186 4.5098032951 -22.532157898 0.49562567472
          -1.4670158625 -18.317531586 1.5199127574e-06 -1.8062977791 -13.090295792 0.18489177525
          0.81971019506 -20.212188721 0.68656605482 7.6840248108 -25.308544159 2.1287944492e-06
          10.513397217 -25.527368546 0.26065528393 -2.4065027237 -16.188899994 1.3283130329e-06
          0.26331734657 -3.7976219654 -0.0037219843362 0.47976323962 -5.7008371353 8.7381124558e-07
          -0.20731641352 -10.550635338 -0.044275712222 2.7592849731 -22.624311447 0.28531038761
          -0.18764597178 -20.519723892 1.733812951e-06 1.3624546528 -22.865365982 -0.65152519941
          -0.2098915875 -13.18597126 0.10383664817 1.3949016333 -22.824882507 -0.32306811213
          -0.22435604036 -13.387039185 0.038061596453 16.166650772 -26.052801132 0.61087185144
          0 0 0 -1.4843934774 -18.332748413 0.45793774724
          0.67512440681 -7.7391009331 0.12155706435 5.0614485741 -25.186693192 -0.48154997826
          0.72596263885 -7.8125634193 0.064413703978 13.350214958 -25.760007858 0.56909579039
          0.087723523378 -1.9932018518 0.027026563883 5.0726156235 -25.175237656 -0.24015264213
          7.6810464859 -25.304515839 0.2413880676 -2.4425599575 -16.204902649 0.56161242723
          0.46773469448 -5.6857118607 -0.033646825701 -0.2030402422 -20.529035568 0.37915804982
          1.4102903605 -22.817480087 1.9611561584e-06 -0.22782859206 -13.469269753 1.4291894104e-06
          10.511336327 -25.499666214 0.52505296469 0.23020318151 -3.8103070259 -0.01444661431
          2.7322070599 -22.661653519 0.57988095284 0.73913812637 -7.8370699883 1.1119501551e-06
          -0.20758506656 -10.412204742 -0.078392699361 5.0754823685 -25.175424576 2.18624632e-06
          17.192476273 -28.885408401 -0.62032306194 0 0 0
          -1.5286329985 -18.399484634 0.92364543676 1.3949023485 -22.824882507 0.32307201624
          0 0 0 14.303732872 -28.588117599 -0.57452887297
          -1.8806195259 -19.146608353 -1.1263058186 -0.22435607016 -13.387039185 -0.03805879131
          0.26946634054 -1.8531848192 -0.11739124358 -1.0232121944 -21.103214264 -0.86546307802
          17.188089371 -28.919195175 -0.30969825387 7.6758980751 -25.287931442 0.48646846414
          14.300087929 -28.621881485 -0.28660416603 0.28377619386 -1.8308157921 -0.053004380316
          -2.4759678841 -16.305358887 1.133177042 -1.8029996157 -19.053403854 -0.54552978277
          0.42424800992 -5.6608366966 -0.066614322364 3.2611057758 -25.266498566 -0.55535751581
          0.72596269846 -7.8125634193 -0.064411520958 -0.2429907918 -20.576099396 0.76223397255
          0.95629864931 -10.144469261 0.19836340845 5.0726161003 -25.175237656 0.24015700817
          -0.97403669357 -21.046104431 -0.42701479793 1.0188848972 -10.258318901 0.11070172489
          3.2876682281 -25.231676102 -0.27381876111 11.383288383 -28.317516327 -0.52853149176
          17.188159943 -28.930252075 2.20774632e-06 0.64413672686 -3.4850223064 -0.020534323528
          0 0 0 11.383131981 -28.349069595 -0.26298424602
          0.70542049408 -3.4903383255 -0.020481510088 14.299714088 -28.632656097 2.2456749775e-06
          0.23839199543 -23.164068222 -0.70989757776 -1.7699685097 -19.039110184 1.4068365317e-06
          -0.9562010169 -21.037160873 1.6568329784e-06 -0.31413167715 -16.760810852 0.010404483415
          0.29001784325 -1.8430535793 3.4656432035e-07 0.27467569709 -23.12468338 -0.35497918725
          3.3014717102 -25.228382111 2.1994756025e-06 -0.31975239515 -17.0968647 -0.0072943600826
          1.0479888916 -10.306393623 1.2788068489e-06 1.3624559641 -22.865365982 0.65152907372
          11.384137154 -28.358573914 2.2956930934e-06 -0.20989152789 -13.18597126 -0.10383403301
          0.71246874332 -3.4946410656 6.8141508791e-07 8.4580831528 -28.076759338 -0.48587760329
          17.188089371 -28.919195175 0.30970266461 0.28817811608 -23.116073608 1.9076621811e-06
          1.0886416435 -5.2470259666 0.10971377045 0.67512464523 -7.7391009331 -0.1215550229
          -0.30457767844 -16.921293259 1.5393856074e-06 5.0614495277 -25.186693192 0.48155429959
          0 0 0 8.4623394012 -28.100948334 -0.24122798443
          1.1688398123 -5.2867722511 0.054895244539 14.300087929 -28.621881485 0.28660863638
          -1.802999258 -19.053403854 0.5455326438 -0.97403615713 -21.046104431 0.42701810598
          0.28377619386 -1.8308156729 0.053005035967 3.2876689434 -25.231676102 0.27382314205
          1.0188848972 -10.258318901 -0.11069921404 11.383131981 -28.349069595 0.26298880577
          8.4647102356 -28.107748032 2.3533664262e-06 1.9061338902 -25.416555405 -0.61917412281
          1.3674142361 -12.864509583 0.24563148618 1.1960970163 -5.2999062538 9.6167025276e-07
          0.70542049408 -3.4903380871 0.020482843742 1.5061435699 -13.086277962 0.27362975478
          0.27467632294 -23.12468338 0.35498297215 1.9353376627 -25.380397797 -0.30743300915
          -0.31975242496 -17.0968647 0.0072973715141 5.6911654472 -27.897907257 -0.46458828449
          17.192476273 -28.885408401 0.62032741308 0 0 0
          1.4820864201 -7.2054944038 0.21917808056 5.7025055885 -27.897199631 -0.2317160666
          14.303733826 -28.588117599 0.57453328371 1.5686705112 -7.294614315 0.14856292307