<?xml version="1.0"?>
<VTKFile type="UnstructuredGrid" version="0.1" byte_order="LittleEndian" header_type="UInt32" compressor="vtkZLibDataCompressor">
  <UnstructuredGrid>
    <Piece NumberOfPoints="6405" NumberOfCells="4800">
      <PointData>
        <DataArray type="Float32" Name="DISPLACEMENT" NumberOfComponents="3" ComponentName0="X-DISPLACEMENT" ComponentName1="Y-DISPLACEMENT" ComponentName2="Z-DISPLACEMENT" format="ascii" RangeMin="0" RangeMax="316.96727386">
          0 0 0 0 0 0
          2.560541153 -1.5569826365 -1.1666922569 0 0 0
          1.5385469198 -0.91092538834 -0.83360987902 0 0 0
          2.3520820141 -1.7485628128 -0.45838737488 1.3392798901 -1.0700188875 -0.33965712786
          0 0 0 4.5949072838 -3.0908253193 -1.1757925749
          0 0 0 4.5394382477 -3.3045794964 -0.6024466157
          3.0877766609 -2.602370739 -0.93027746677 0 0 0
          0 0 0 2.3631019592 -1.8047018051 -1.134814287e-08
          0.93099427223 -0.60574436188 -0.55355298519 1.3339352608 -1.0954614878 2.6742799974e-08
          3.0228550434 -2.7737011909 -0.47383755445 0.78117644787 -0.75188314915 -0.22958950698
          4.4903659821 -3.3623008728 1.5164390277e-07 1.9195636511 -2.2357692719 -0.6810786128
          0 0 0 2.9836051464 -2.8265886307 2.0176607052e-07
          1.8405766487 -2.3851943016 -0.34936758876 0 0 0
          6.3719940186 -5.1126508713 -1.0740492344 0 0 0
          0.77308565378 -0.77082359791 2.5616325061e-08 0 0 0
          0 0 0 2.3520822525 -1.748562932 0.45838737488
          4.5145454407 -4.6642637253 -0.88852709532 6.3995809555 -5.2595148087 -0.54681575298
          0.25925335288 -0.47268727422 -0.26113197207 1.3392801285 -1.0700188875 0.33965721726
          4.5347094536 -4.8000388145 -0.45245406032 0.12976174057 -0.62562948465 -0.1282658726
          1.8098249435 -2.4283921719 2.0962318104e-07 4.5394387245 -3.3045797348 0.60244691372
          0 0 0 0 0 0
          0.72582966089 -2.0353262424 -0.46645250916 2.9858708382 -4.33375597 -0.71698230505
          6.3829607964 -5.3113293648 4.490763672e-07 3.0228555202 -2.7737011909 0.47383797169
          2.9726679325 -4.4556474686 -0.36389088631 0.78117668629 -0.75188314915 0.22958959639
          4.5255374908 -4.8446364403 5.0218750403e-07 0.63721823692 -2.1671307087 -0.24145355821
          0.10959721357 -0.64613556862 1.3205939675e-09 0 0 0
          7.9530587196 -7.3717155457 -0.93018651009 0 0 0
          5.8538818359 -6.9673643112 -0.80854535103 1.8405771255 -2.3851943016 0.3493680656
          8.0073490143 -7.4680962563 -0.47170338035 2.5605416298 -1.5569829941 1.1666924953
          0 0 0 0 0 0
          0.61372244358 -2.2077188492 1.8811613245e-07 2.9626376629 -4.4951238632 5.180363587e-07
          -0.28099575639 -0.59227699041 -0.071922689676 5.9009714127 -7.0620260239 -0.40775310993
          1.5385473967 -0.91092556715 0.83361011744 1.4786221981 -4.1011505127 -0.565957129
          0 0 0 6.3995814323 -5.2595152855 0.54681664705
          -0.38170441985 -0.73142147064 -0.048223089427 1.449059844 -4.2093720436 -0.28383150697
          4.5347099304 -4.8000392914 0.4524551034 0.12976205349 -0.62562948465 0.1282659322
          4.0625185966 -6.6482996941 -0.68873292208 -0.23074871302 -2.037101984 -0.30729171634
          8.00822258 -7.5021114349 8.6319340653e-07 4.5949082375 -3.0908255577 1.1757929325
          0 0 0 0 0 0
          4.080561161 -6.738465786 -0.34702324867 3.0877773762 -2.6023709774 0.93027806282
          5.9084300995 -7.0948519707 9.1190980811e-07 -0.29613617063 -2.1530821323 -0.15456408262
          0.93099474907 -0.60574436188 0.55355322361 -0.39610803127 -0.77325135469 -6.7518186597e-08
          1.4391173124 -4.2435107231 5.0677306263e-07 2.9726686478 -4.4556474686 0.36389195919
          0.63721889257 -2.1671307087 0.24145399034 4.0819954872 -6.7688007355 9.3159371772e-07
          1.919564724 -2.2357692719 0.68107920885 -0.30269631743 -2.1957437992 1.2854106046e-07
          2.3540799618 -6.4068818092 -0.57298463583 8.007349968 -7.4680962563 0.47170513868
          6.3719954491 -5.1126508713 1.0740501881 0 0 0
          9.3544168472 -9.7740125656 -0.8101195693 0 0 0
          0 0 0 0.13247863948 -3.9941084385 -0.39764851332
          2.3532297611 -6.4923834801 -0.28682243824 9.4076271057 -9.8346767426 -0.40777465701
          7.0976228714 -9.4050340652 -0.73137778044 5.9009723663 -7.0620260239 0.40775495768
          -1.0634213686 -0.81197959185 0.090724363923 0 0 0
          4.5145468712 -4.6642637253 0.88852822781 0.25925394893 -0.47268715501 0.26113221049
          0.1037953198 -4.0983362198 -0.20460365713 -0.38170397282 -0.73142135143 0.048223022372
          -1.1998198032 -0.92602819204 0.0034268072341 1.4490607977 -4.2093720436 0.28383257985
          7.1451830864 -9.4687671661 -0.36614897847 4.0805621147 -6.738465786 0.34702512622
          2.352026701 -6.5189404488 9.2809796115e-07 9.4158353806 -9.8567295074 1.3777945469e-06
          -1.2754993439 -2.203130722 -0.22684274614 -0.29613536596 -2.1530821323 0.15456438065
          0 0 0 5.1067633629 -9.1004190445 -0.64752465487
          0.72583085299 -2.0353262424 0.46645307541 2.9858722687 -4.33375597 0.71698349714
          0.098484404385 -4.128780365 4.7484445531e-07 7.1572647095 -9.4908294678 1.4167586642e-06
          -1.2224807739 -0.96898061037 -1.9502581949e-07 -1.3502779007 -2.280749321 -0.10491671413
          5.1310682297 -9.1633825302 -0.32450556755 7.953060627 -7.3717155457 0.93018835783
          0 0 0 0.65823298693 -6.247838974 -0.43575885892
          5.8538837433 -6.9673643112 0.80854731798 -1.3518856764 -2.3215584755 -1.3428316237e-08
          0.63880944252 -6.3322353363 -0.22522079945 5.1376161575 -9.1842365265 1.4259812815e-06
          -0.28099495173 -0.59227669239 0.071922846138 2.3532307148 -6.4923834801 0.28682431579
          3.2179033756 -8.8655395508 -0.56380218267 9.4076280594 -9.8346767426 0.40777742863
          -1.0962640047 -4.0992183685 -0.34155082703 1.4786239862 -4.1011505127 0.56595826149
          0 0 0 0.10379628092 -4.0983362198 0.2046046257
          3.2212738991 -8.9242649078 -0.28342404962 -1.1998192072 -0.92602801323 -0.0034271420445
          -1.1444598436 -4.1641030312 -0.15791542828 7.1451840401 -9.4687671661 0.36615183949
          4.062520504 -6.6482996941 0.68873482943 -0.23074728251 -2.0371017456 0.30729213357
          10.603508949 -12.257149696 -0.71970534325 0 0 0
          0.63740593195 -6.356294632 8.9815830506e-07 8.242058754 -11.924589157 -0.66977608204
          10.646634102 -12.295572281 -0.36094751954 0 0 0
          -2.1362893581 -1.0397607088 0.12049163133 8.2811355591 -11.966578484 -0.33398506045
          3.2244052887 -8.9431943893 1.4101183297e-06 -2.3078534603 -1.0912423134 0.028697382659
          -1.350276947 -2.2807490826 0.10491672903 -1.1446051598 -4.1993303299 3.4274856375e-07
          5.1310691833 -9.1633825302 0.32450842857 6.0963234901 -11.6516819 -0.61508321762
          -2.3339579105 -2.4533011913 -0.2667607367 10.656017303 -12.309802055 1.9825047275e-06
          0 0 0 -2.4301037788 -2.4589436054 -0.11122247577
          6.1192502975 -11.692424774 -0.30686640739 8.292678833 -11.981320381 2.0061995656e-06
          -2.2904791832 -1.1515756845 -4.6146413979e-07 2.3540818691 -6.4068818092 0.57298654318
          1.2854712009 -8.6905508041 -0.48996883631 9.3544187546 -9.7740125656 0.81012243032
          0 0 0 -0.73149180412 -6.2935652733 -0.42148327827
          0.6388105154 -6.3322353363 0.22522260249 0.13248045743 -3.9941082001 0.3976495266
          7.0976247787 -9.4050350189 0.73138070107 -1.0634202957 -0.81197917461 -0.090724483132
          -0.77051365376 -6.3357925415 -0.19967849553 1.267089963 -8.7412624359 -0.24797323346
          3.2212750912 -8.9242649078 0.28342691064 -1.1444586515 -4.1641030312 0.15791614354
          6.1270699501 -11.706329346 1.994300419e-06 -2.4292328358 -2.4897603989 -2.9580252203e-07
          4.0661582947 -11.449850082 -0.56705129147 -2.1221604347 -4.3709464073 -0.42057931423
          -1.2754976749 -2.2031304836 0.22684286535 10.646635056 -12.295572281 0.36095148325
          5.1067657471 -9.1004190445 0.64752757549 0 0 0
          1.2684956789 -8.7589187622 1.3619938954e-06 -0.76609659195 -6.3656597137 7.656134926e-07
          4.0728387833 -11.48234272 -0.28397542238 8.2811374664 -11.966578484 0.33398908377
          -2.1936779022 -4.3570671082 -0.18308888376 -2.3078525066 -1.091242075 -0.028698241338
          0.65823507309 -6.2478384972 0.43576070666 4.0780515671 -11.49551487 1.9587469069e-06
          6.1192517281 -11.692425728 0.30687043071 -2.4301025867 -2.4589436054 0.11122196168
          -2.1891155243 -4.3826789856 7.1659627565e-08 11.731929779 -14.77940464 -0.65713596344
          0 0 0 11.763466835 -14.80570507 -0.32906904817
          3.2179057598 -8.8655395508 0.5638051033 9.2953977585 -14.476316452 -0.62325966358
          -1.0962619781 -4.0992183685 0.34155163169 -0.2235814631 -8.6751680374 -0.50603175163
          -0.62354081869 -1.5944814682 0.32183298469 -0.77051240206 -6.3357925415 0.19968006015
          1.2670911551 -8.7412624359 0.24797600508 0 0 0
          9.3250665665 -14.505740166 -0.31021973491 -0.24543339014 -8.6912965775 -0.24510732293
          -0.60727649927 -1.64144063 0.1148205772 2.0394532681 -11.287976265 -0.5509724021
          -1.7598925829 -6.5430893898 -0.53877997398 10.60351181 -12.257149696 0.71970939636
          0 0 0 8.2420606613 -11.924589157 0.66978019476
          11.771902084 -14.815648079 2.671240054e-06 -1.8090825081 -6.5065941811 -0.2460039854
          2.032810688 -11.306310654 -0.2720797956 -2.136288166 -1.0397601128 -0.12049220502
          7.0190901756 -14.235923767 -0.58581274748 -1.5366103649 -2.8713223934 0.15565662086
          0 0 0 4.0728402138 -11.48234272 0.28397938609
          -2.1936764717 -4.3570671082 0.18308909237 9.3343229294 -14.516104698 2.6747327411e-06
          -0.2358867079 -8.7110710144 1.2464977317e-06 7.0413527489 -14.262935638 -0.29140749574
          -1.6381038427 -2.9497056007 0.031988050789 -0.63054025173 -1.6610792875 -1.8979464755e-07
          6.0963258743 -11.6516819 0.61508733034 -2.3339557648 -2.4533009529 0.26676034927
          2.036740303 -11.317155838 1.9102328679e-06 -1.7969645262 -6.5272083282 5.2188130439e-07
          1.2854735851 -8.6905508041 0.48997172713 7.0484118462 -14.272237778 2.6450404675e-06
          -1.6089568138 -2.9492099285 -7.5607061945e-08 -0.73148941994 -6.2935652733 0.4214849472
          11.763467789 -14.80570507 0.32907438278 4.8799610138 -14.077857971 -0.5579200983
          0 0 0 -2.4794666767 -4.7465310097 -0.28125375509
          4.8954672813 -14.094484329 -0.27861765027 9.3250675201 -14.505740166 0.31022509933
          -0.60727620125 -1.6414405107 -0.11482089758 -0.24543194473 -8.6912965775 0.24510988593
          -2.5666873455 -4.7957501411 -0.17876389623 4.0661611557 -11.449850082 0.56705534458
          0.41161960363 -11.234365463 -0.56346273422 2.0328121185 -11.306310654 0.2720836699
          -2.1221580505 -4.3709459305 0.42057964206 -1.8090809584 -6.5065941811 0.24600508809
          -1.2893024683 -8.9052858353 -0.62923330069 0.41274580359 -11.234327316 -0.27835169435
          4.9007563591 -14.103027344 2.5996548629e-06 7.0413541794 -14.262935638 0.29141283035
          -1.6381034851 -2.9497056007 -0.031988177449 -1.3058100939 -8.860367775 -0.29599407315
          -2.4743800163 -4.787045002 2.3445849706e-08 12.78083992 -17.315475464 -0.61969840527
          0 0 0 -0.41524213552 -1.8186014891 0.239274472
          0.42487844825 -11.242461205 1.8428933117e-06 2.8499147892 -13.963645935 -0.56457740068
          10.281065941 -17.02756691 -0.58912932873 11.731931686 -14.77940464 0.65714132786
          0 0 0 0 0 0
          -1.2875283957 -8.8744478226 1.067446874e-06 -2.5396003723 -6.9243235588 -0.6671949029
          12.801305771 -17.338409424 -0.30982977152 2.8632676601 -13.96625042 -0.27786111832
          10.301671028 -17.053264618 -0.29295238853 9.2953996658 -14.476317406 0.623265028
          -0.4040760994 -1.8140815496 0.1056984067 -0.22357873619 -8.6751680374 0.50603443384
          -0.62354040146 -1.594481349 -0.32183298469 -2.5860373974 -6.8454914093 -0.32891708612
          4.8954687119 -14.094484329 0.27862289548 -2.5666868687 -4.7957501411 0.17876400054
          7.8797478676 -16.801687241 -0.55341672897 2.0394561291 -11.287976265 0.55097645521
          -1.7598898411 -6.543088913 0.53878122568 0 0 0
          -0.8670989871 -3.4420354366 0.15246227384 12.808145523 -17.346763611 3.4303684515e-06
          -0.40974447131 -1.8324432373 1.4444012209e-08 2.869559288 -13.972240448 2.5607885163e-06
          7.9004349709 -16.824792862 -0.27476337552 7.0190925598 -14.235923767 0.5858181119
          10.308321953 -17.061740875 3.4075267195e-06 -1.5366096497 -2.8713226318 -0.15565656126
          -2.5697786808 -6.8414669037 3.2661253613e-07 -0.91735893488 -3.4744269848 0.089074119925
          0.41274753213 -11.234327316 0.27835544944 -1.3058085442 -8.860367775 0.29599627852
          -0.75534915924 -11.441667557 -0.66744488478 7.9060621262 -16.83149147 3.361403742e-06
          -0.92010933161 -3.4899532795 2.0322353578e-07 -0.74521249533 -11.401533127 -0.31975951791
          5.6181149483 -16.675479889 -0.52413284779 0 0 0
          -1.3003932238 -5.1225132942 0.032171592116 12.801307678 -17.338409424 0.30983662605
          -0.40407592058 -1.8140815496 -0.10569831729 2.8632695675 -13.96625042 0.27786630392
          5.6393184662 -16.687225342 -0.26177808642 4.8799638748 -14.077857971 0.55792540312
          10.301672935 -17.053264618 0.29295921326 1.0961612463 -13.918841362 -0.57752460241
          -2.138561964 -9.3024272919 -0.76118850708 -2.4794652462 -4.7465310097 0.28125438094
          -1.3749473095 -5.2168712616 2.6317789889e-05 -2.5860359669 -6.8454914093 0.32891777158
          1.1114860773 -13.908569336 -0.28696092963 -2.1445746422 -9.2228727341 -0.37495315075
          -0.72474372387 -11.41018486 1.7328731019e-06 0.41162273288 -11.234365463 0.56346660852
          7.9004364014 -16.824792862 0.27477011085 -1.2892994881 -8.9052858353 0.62923556566
          5.6439094543 -16.692209244 3.3091314435e-06 -0.91735851765 -3.4744269848 -0.089073650539
          -1.4005788565 -5.2305812836 4.9829026239e-07 1.1234124899 -13.91043663 2.5257616016e-06
          -2.1291759014 -9.2172079086 9.4695354846e-07 -1.7081420422 -7.0401740074 -0.072265677154
          3.569303751 -16.63297081 -0.52832233906 12.780841827 -17.315475464 0.6197053194
          0 0 0 -0.7452108264 -11.401533127 0.31976303458
          -0.41524168849 -1.8186017275 -0.23927417397 -1.7846164703 -7.1805729866 -0.091660216451
          2.8499181271 -13.963646889 0.5645827055 10.281068802 -17.02756691 0.58913618326
          3.5936000347 -16.6295681 -0.26333260536 13.792553902 -19.867933273 -0.60346513987
          0 0 0 -2.5395977497 -6.924323082 0.66719561815
          13.802965164 -19.893516541 -0.30111959577 -0.23867158592 -1.9097360373 0.15630197525
          11.229040146 -19.582380295 -0.5676471591 5.6393198967 -16.687225342 0.26178473234
          0 0 0 -1.3749465942 -5.2168712616 -2.5284440198e-05
          11.240503311 -19.610364914 -0.28216835856 -0.21523047984 -1.8883532286 0.068873666227
          1.1114878654 -13.908569336 0.28696599603 -2.1445732117 -9.2228727341 0.3749550581
          7.8797507286 -16.801687241 0.5534235239 -1.7956223488 -7.1850304604 9.2746756764e-07
          3.6013729572 -16.63394165 3.2701859709e-06 -0.86709803343 -3.442035675 -0.15246161819
          -0.18842558563 -14.099256516 -0.66662192345 -0.46685394645 -3.6387248039 0.15336243808
          8.7008447647 -19.350244522 -0.5243601799 -1.6653163433 -11.844626427 -0.78763836622
          13.807790756 -19.902166367 4.2344540816e-06 0 0 0
          -0.16299021244 -14.062281609 -0.32255792618 11.244703293 -19.618808746 4.178985364e-06
          -0.22009365261 -1.8950166702 2.2046587844e-07 8.7159137726 -19.375761032 -0.26020523906
          -0.48056098819 -3.6425335407 0.082416005433 -1.6451296806 -11.776504517 -0.38612917066
          -0.75534600019 -11.441667557 0.66744846106 -0.14408959448 -14.065879822 2.4343128189e-06
          -2.1938586235 -9.4515829086 -0.22397297621 -1.7846158743 -7.1805729866 0.091662034392
          1.7677350044 -16.647556305 -0.56887990236 8.7202777863 -19.38177681 4.115849606e-06
          5.6181178093 -16.675479889 0.52413952351 3.5936019421 -16.6295681 0.26333916187
          -1.6266224384 -11.771891594 1.63611071e-06 -0.48184984922 -3.6522686481 5.8992662844e-07
          -1.3003919125 -5.1225132942 -0.032170403749 13.802966118 -19.893516541 0.30112805963
          6.2709059715 -19.222841263 -0.4850808382 -2.2790989876 -9.5909004211 -0.22468072176
          -0.72534924746 -5.3903446198 0.11534249038 1.7903939486 -16.62748909 -0.28035116196
          1.0961645842 -13.918841362 0.57752972841 -2.138559103 -9.3024272919 0.76119041443
          0 0 0 -0.75763916969 -5.4388036728 0.063105382025
          11.240505219 -19.610364914 0.28217673302 -0.21523028612 -1.8883533478 -0.06887319684
          6.288983345 -19.235326767 -0.24245294929 -2.1991174221 -9.5401582718 1.3083497379e-06
          1.8026835918 -16.629062653 3.225946557e-06 -0.16298851371 -14.062281609 0.32256281376
          6.2927045822 -19.238405228 4.0567642827e-06 -0.76415419579 -5.4620089531 1.0347658872e-06
          8.7159147263 -19.375759125 0.2602134645 -0.48056060076 -3.6425335407 -0.082414790988
          -1.6451281309 -11.776504517 0.38613247871 -1.7081407309 -7.0401740074 0.0722675547
          3.5693073273 -16.632972717 0.52832889557 4.1323690414 -19.231180191 -0.48556154966
          13.792556763 -19.867933273 0.60347360373 0 0 0
          -1.0157394409 -7.3713617325 0.07479096204 -0.23867100477 -1.9097363949 -0.1563013494
          11.229042053 -19.582380295 0.56765550375 -2.2790985107 -9.5909004211 0.22468338907
          1.7903958559 -16.62748909 0.28035759926 4.1558275223 -19.223171234 -0.24425692856
          -1.1668550968 -14.482265472 -0.77299404144 -1.0512850285 -7.467977047 0.039296023548
          -0.75763875246 -5.4388036728 -0.063103303313 6.2889852524 -19.235326767 0.24246107042
          -1.1307088137 -14.425341606 -0.37718999386 0.39166614413 -16.801458359 -0.6409946084
          -2.4859604836 -12.303906441 -0.84426176548 14.797237396 -22.459009171 -0.6026455164
          0 0 0 12.163876534 -22.170648575 -0.55979913473
          -0.18842239678 -14.099256516 0.66662675142 -0.46685299277 -3.6387252808 -0.15336114168
          8.7008476257 -19.350244522 0.52436840534 -2.4668676853 -12.248783112 -0.43558993936
          0.42308846116 -16.766361237 -0.314119488 -1.6653133631 -11.844626427 0.78764164448
          14.799456596 -22.489469528 -0.30039635301 0 0 0
          -1.0600861311 -7.4977731705 1.4959395003e-06 4.1631674767 -19.226791382 4.0037125473e-06
          -0.098458647728 -1.909927249 0.08495426923 12.167045593 -22.202774048 -0.27843895555
          -0.075483344495 -1.8836534023 0.036415625364 -1.1129591465 -14.420297623 2.3151849291e-06
          9.5163640976 -21.923475266 -0.51066190004 -2.448520422 -12.229294777 1.6082881302e-06
          0.43947869539 -16.764995575 3.117992037e-06 14.802082062 -22.499385834 5.0484500207e-06
          0 0 0 -0.1646926105 -3.6631760597 0.10981348902
          9.5236005783 -21.953521729 -0.25330525637 12.169065475 -22.212402344 4.9561886044e-06
          -2.1938574314 -9.4515838623 0.22397607565 1.7677384615 -16.647556305 0.56888639927
          -0.074812471867 -1.8859971762 4.3507176883e-07 -0.15049254894 -3.6506440639 0.057995416224
          6.2709088326 -19.222841263 0.48508897424 -0.72534811497 -5.3903450966 -0.11534037441
          -1.2857284546 -9.6982793808 0.03341551125 2.3791005611 -19.316083908 -0.54817789793
          -1.0512845516 -7.467977047 -0.03929303214 4.1558294296 -19.223173141 0.24426493049
          -1.3241323233 -9.8317403793 0.010653237812 2.4067127705 -19.291025162 -0.26907742023
          -1.1307072639 -14.425341606 0.37719464302 9.5270175934 -21.96090126 4.871542842e-06
          -0.14587979019 -3.6552405357 9.9379928997e-07 6.9001631737 -21.757406235 -0.46400165558
          -2.4668664932 -12.248783112 0.43559315801 0.4230902195 -16.766361237 0.31412571669
          14.79945755 -22.489469528 0.30040642619 0 0 0
          -0.21906863153 -5.4451622963 0.12307097018 6.9109349251 -21.7748909 -0.23101517558
          12.167046547 -22.202774048 0.27844884992 -0.21091088653 -5.4644122124 0.065345399082
          -1.361219883 -9.8730945587 1.9440926735e-06 2.4206244946 -19.29284668 3.9088017729e-06
          -0.075483195484 -1.8836534023 -0.036414764822 9.523601532 -21.953521729 0.25331497192
          6.9142584801 -21.77835083 4.7987414291e-06 -0.20857173204 -5.4789643288 1.5786680478e-06
          4.1323723793 -19.231180191 0.48556953669 -0.66188460588 -17.135057449 -0.72557854652
          -0.15049223602 -3.6506440639 -0.057993423194 -1.015738368 -7.3713626862 -0.074787974358
          -2.0208878517 -14.948004723 -0.84567463398 -0.62196612358 -17.090545654 -0.35492381454
          -1.1668522358 -14.482265472 0.77299869061 -1.980931282 -14.89315033 -0.42329728603
          -1.3241317272 -9.8317394257 -0.01064939145 2.4067146778 -19.291025162 0.26908522844
          0.39166936278 -16.801458359 0.64100074768 -2.4859578609 -12.303906441 0.84426498413
          -0.26180973649 -7.4344100952 0.13772173226 4.5954108238 -21.749868393 -0.45641812682
          14.797240257 -22.459009171 0.60265552998 0 0 0
          12.163879395 -22.170648575 0.5598089695 -0.25619879365 -7.4885940552 0.072119832039
          -0.60694378614 -17.084756851 2.9503792121e-06 -1.6058146954 -12.175623894 0.1025775522
          0.96007919312 -19.458221436 -0.60689425468 4.6139817238 -21.740673065 -0.22921542823
          -0.098457969725 -1.9099274874 -0.084953285754 -1.966678977 -14.877994537 2.1954303975e-06
          6.9109358788 -21.7748909 0.23102475703 -0.2109105289 -5.4644122124 -0.065342269838
          0.99121826887 -19.425704956 -0.30005481839 -1.7358772755 -12.410443306 -0.09370457381
          9.5163669586 -21.923473358 0.5106716156 -0.25684195757 -7.519235611 2.1201956315e-06
          4.6195840836 -21.742830276 4.7257631195e-06 -0.16469161212 -3.6631765366 -0.10981149971
          1.005892396 -19.421661377 3.7568313473e-06 15.810324669 -25.110807419 -0.61085832119
          0 0 0 -1.7068500519 -12.414746284 2.2871663532e-06
          15.807117462 -25.145881653 -0.30466192961 0 0 0
          -0.62196457386 -17.090545654 0.35492971539 13.100229263 -24.818164825 -0.56268459558
          -1.2857272625 -9.6982793808 -0.033411819488 2.3791041374 -19.316083908 0.54818570614
          0.041272468865 -1.8415857553 0.013264818117 -1.9809299707 -14.89315033 0.42330166698
          13.097720146 -24.854026794 -0.28034883738 0.061340026557 -1.813649416 0.004213205073
          6.9001660347 -21.757406235 0.46401119232 15.807855606 -25.157327652 5.8354376051e-06
          -0.25619846582 -7.4885940552 -0.072115644813 10.354264259 -24.556383133 -0.51187461615
          0.14804728329 -3.5280814171 0.062274552882 4.6139831543 -21.740673065 0.22922484577
          0 0 0 2.9100935459 -21.870801926 -0.52148771286
          -0.29821169376 -9.6969165802 0.15746577084 -0.21906755865 -5.4451627731 -0.12306793779
          0.18387292325 -3.5137183666 0.029187239707 10.35538578 -24.590929031 -0.25403949618
          13.098004341 -24.865316391 5.705086096e-06 0.99121999741 -19.425704956 0.30006229877
          -0.29804837704 -9.8047084808 0.081816345453 2.939160347 -21.844512939 -0.25650522113
          -1.7358769178 -12.410443306 0.093709081411 0.066058315337 -1.8158196211 6.635165164e-07
          -1.5253306627 -17.575458527 -0.79660952091 10.357439041 -24.600776672 5.5931000134e-06
          -0.66188174486 -17.135057449 0.72558432817 0.19360299408 -3.5160343647 1.4022548385e-06
          -0.29791006446 -9.8497209549 2.5824876957e-06 -1.4852741957 -17.528442383 -0.39322021604
          2.9537894726 -21.844932556 4.570659712e-06 -2.0208852291 -14.948003769 0.84567898512
          15.807118416 -25.145881653 0.30467358232 7.5967812538 -24.33997345 -0.46179041266
          -2.475199461 -15.439644814 -0.77975994349 0 0 0
          0.30258178711 -5.2494969368 0.11609490961 -0.16502842307 -19.725593567 -0.66572874784
          0.34303814173 -5.2653455734 0.059191845357 7.6025900841 -24.366001129 -0.22846320271
          13.0977211 -24.854026794 0.28036025167 -2.4800593853 -15.448828697 -0.41909837723
          -0.13031852245 -19.691373825 -0.32926514745 0.061340115964 -1.8136492968 -0.0042119245045
          -0.26180875301 -7.4344105721 -0.13771772385 4.5954136848 -21.749868393 0.45642748475
          -1.4714748859 -17.516996384 2.7356445571e-06 -1.6058137417 -12.175623894 -0.10257317126
          0.96008235216 -19.458221436 0.60690164566 7.60607481 -24.372051239 5.4974934756e-06
          10.355386734 -24.590929031 0.25405067205 -2.4147033691 -15.425315857 2.1819028007e-06
          0.18387311697 -3.5137181282 -0.029184468091 0.35467323661 -5.2766304016 2.1025450678e-06
          -0.29804807901 -9.8047084808 -0.081811264157 2.9391622543 -21.844512939 0.25651434064
          -0.11778349429 -19.685001373 3.5321470477e-06 1.5040094852 -22.00753212 -0.57511299849
          -0.33752503991 -12.359963417 0.15656162798 1.532263279 -21.97709465 -0.2847302258
          -0.33412107825 -12.509912491 0.087106615305 15.810326576 -25.110805511 0.6108699441
          0 0 0 -1.4852727652 -17.528442383 0.39322566986
          0.5100954771 -7.1667280197 0.16316628456 5.0670294762 -24.248060226 -0.43583086133
          0.55342781544 -7.2223558426 0.086244471371 13.100231171 -24.818162918 0.56269592047
          0.041273217648 -1.8415858746 -0.013263484463 5.0819311142 -24.24417305 -0.21758691967
          7.6025915146 -24.366001129 0.22847418487 -2.4800589085 -15.448828697 0.41910275817
          0.34303832054 -5.2653455734 -0.059187717736 -0.13031695783 -19.691373825 0.3292722106
          1.5455085039 -21.971700668 4.3584341256e-06 -0.34943842888 -12.577999115 2.9593290947e-06
          10.354266167 -24.556381226 0.51188570261 0.14804825187 -3.5280814171 -0.062271893024
          2.9100968838 -21.870801926 0.52149671316 0.56531178951 -7.2437839508 2.6853717827e-06
          -0.2982108891 -9.6969165802 -0.15746094286 5.0853285789 -24.245298386 5.4107576943e-06
          16.838651657 -27.836431503 -0.62311303616 0 0 0
          -1.5253281593 -17.575458527 0.79661488533 1.5322649479 -21.97709465 0.28473892808
          0 0 0 14.047374725 -27.538095474 -0.57073551416
          -2.093609333 -18.139131546 -0.92776530981 -0.33412089944 -12.509912491 -0.087100803852
          0.21405746043 -1.6866043806 -0.067912839353 -1.0417784452 -20.126192093 -0.74057453871
          16.832843781 -27.875455856 -0.3112129271 7.596783638 -24.339971542 0.46180129051
          14.042251587 -27.577363968 -0.28495386243 0.23471705616 -1.6642119884 -0.031283780932
          -2.4751982689 -15.439644814 0.77976477146 -2.058011055 -18.063772202 -0.4528311789
          0.30258268118 -5.2494969368 -0.11609102786 3.3929083347 -24.33649826 -0.49302759767
          0.55342793465 -7.2223553658 -0.086239226162 -0.16502557695 -19.725593567 0.66573572159
          0.7694798708 -9.4328737259 0.23055772483 5.0819325447 -24.24417305 0.21759772301
          -1.0067888498 -20.083551407 -0.3636251688 0.8115644455 -9.5126123428 0.11734628677
          3.4202303886 -24.308843613 -0.24344007671 11.216962814 -27.264112473 -0.51804995537
          16.832443237 -27.888376236 6.5619556153e-06 0.54218703508 -3.2019436359 0.025890950114
          0 0 0 11.215310097 -27.303066254 -0.2577637732
          0.59911829233 -3.1991500854 0.0041980128735 14.041445732 -27.590280533 6.3956326812e-06
          0.319670856 -22.210178375 -0.61710506678 -2.0333240032 -18.052770615 2.4322553145e-06
          -0.99364626408 -20.076124191 3.2215509691e-06 -0.35560247302 -14.950124741 0.25344976783
          0.24043110013 -1.6733006239 9.2697194987e-07 0.34680336714 -22.180204391 -0.30834659934
          3.433681488 -24.306892395 5.2233408496e-06 -0.39479833841 -15.229381561 0.060150682926
          0.83348876238 -9.5506467819 3.1302331536e-06 1.5040125847 -22.00753212 0.57512158155
          11.216035843 -27.315177917 6.2560488914e-06 -0.33752450347 -12.359963417 -0.15655615926
          0.60631942749 -3.2011070251 1.8042367174e-06 8.3673372269 -27.012020111 -0.46259996295
          16.832843781 -27.875455856 0.31122601032 0.35729297996 -22.173065186 4.0698009798e-06
          0.92965275049 -4.8366708755 0.14051611722 0.51009607315 -7.1667275429 -0.16316138208
          -0.37915554643 -15.233362198 3.2729017221e-06 5.0670323372 -24.248060226 0.43584156036
          0 0 0 8.3711700439 -27.047412872 -0.22910735011
          1.0004767179 -4.8622026443 0.069822341204 14.042252541 -27.577362061 0.28496661782
          -2.0580101013 -18.063772202 0.45283603668 -1.0067875385 -20.083551407 0.3636316061
          0.23471705616 -1.6642116308 0.031285516918 3.4202320576 -24.308843613 0.24345049262
          0.81156432629 -9.5126123428 -0.11734014004 11.21531105 -27.303066254 0.25777626038
          8.3739967346 -27.056699753 6.1393971009e-06 2.0375330448 -24.446819305 -0.54820787907
          1.0971286297 -11.849988937 0.21022778749 1.0227572918 -4.8731846809 2.558528422e-06
          0.59911829233 -3.1991496086 -0.0041944924742 1.1851928234 -12.011856079 0.20506034791
          0.34680491686 -22.180202484 0.30835470557 2.0613534451 -24.416378021 -0.27139720321
          -0.39479827881 -15.229380608 -0.060144327581 5.630282402 -26.808685303 -0.41020530462
          16.838653564 -27.836431503 0.62312608957 0 0 0
          1.2649611235 -6.6493735313 0.25015386939 5.6441483498 -26.81811142 -0.20585331321
          14.047376633 -27.538095474 0.57074820995 1.3299363852 -6.7140460014 0.14195542037