<?xml version="1.0"?>
<VTKFile type="UnstructuredGrid" version="0.1" byte_order="LittleEndian" header_type="UInt32" compressor="vtkZLibDataCompressor">
  <UnstructuredGrid>
    <Piece NumberOfPoints="6405" NumberOfCells="4800">
      <PointData>
        <DataArray type="Float32" Name="DISPLACEMENT" NumberOfComponents="3" ComponentName0="X-DISPLACEMENT" ComponentName1="Y-DISPLACEMENT" ComponentName2="Z-DISPLACEMENT" format="ascii" RangeMin="0" RangeMax="715.70688651">
          0 0 0 0 0 0
          4.2288756371 -2.5022528172 -1.987622261 0 0 0
          2.966668129 -1.4257897139 -1.6725138426 0 0 0
          3.8190932274 -2.7001128197 -0.79797136784 2.5639653206 -1.5858108997 -0.68315941095
          0 0 0 7.6412606239 -4.1667275429 -2.1156170368
          0 0 0 7.4857749939 -4.4197354317 -1.097853303
          5.9848632812 -3.2637984753 -1.8847916126 0 0 0
          0 0 0 3.8222954273 -2.7811431885 5.7331089209e-08
          2.3869688511 -0.92151486874 -1.4452656507 2.5505616665 -1.623924017 6.3858507815e-08
          5.8279533386 -3.4568250179 -0.96243911982 2.0443403721 -1.0660119057 -0.5885874629
          7.3918280602 -4.4938941002 1.9917766281e-07 4.7430820465 -2.4950258732 -1.6275646687
          0 0 0 5.7416343689 -3.5277166367 1.9632895487e-07
          4.5995178223 -2.6757795811 -0.83695197105 0 0 0
          10.915631294 -6.1808681488 -2.0911784172 0 0 0
          2.0323781967 -1.0978673697 5.40995444e-08 0 0 0
          0 0 0 3.8190932274 -2.7001128197 0.79797148705
          8.9238843918 -5.2522544861 -1.852265358 10.903717041 -6.3798799515 -1.0684578419
          1.9021940231 -0.62699717283 -1.1886440516 2.563965559 -1.5858108997 0.68315953016
          8.9173593521 -5.4407935143 -0.94428610802 1.6151982546 -0.77448558807 -0.48801583052
          4.5212154388 -2.7326378822 1.7936241647e-07 7.4857749939 -4.4197354317 1.0978536606
          0 0 0 0 0 0
          3.7633748055 -1.9753421545 -1.3590557575 7.2173581123 -4.4597115517 -1.6144570112
          10.872008324 -6.4560661316 4.0525691247e-07 5.8279533386 -3.4568250179 0.96243947744
          7.2036991119 -4.646147728 -0.82376813889 2.0443403721 -1.0660119057 0.58858758211
          8.888176918 -5.5076260567 3.8426503579e-07 3.6386394501 -2.1607153416 -0.69851392508
          1.6052869558 -0.80277556181 4.4680621869e-08 0 0 0
          14.177754402 -8.4675416946 -1.9993567467 0 0 0
          11.836935043 -7.5537629128 -1.7709583044 4.5995178223 -2.6757795811 0.83695232868
          14.213470459 -8.6452150345 -1.0105620623 4.2288756371 -2.5022530556 1.9876224995
          0 0 0 0 0 0
          3.5733523369 -2.2151734829 1.5714992685e-07 7.1765737534 -4.7078704834 3.5339974147e-07
          1.4646590948 -0.4356379509 -0.92540162802 11.87389946 -7.7305932045 -0.89353621006
          2.9666683674 -1.4257898331 1.672514081 5.7353248596 -3.8368775845 -1.3530205488
          0 0 0 10.903717041 -6.3798799515 1.0684585571
          1.2368382215 -0.58565658331 -0.3800162375 5.7192006111 -4.0293755531 -0.6919080615
          8.9173593521 -5.4407935143 0.94428688288 1.6151983738 -0.77448558807 0.48801594973
          9.7122383118 -6.7594041824 -1.5404504538 2.8838186264 -1.6270070076 -1.070915699
          14.212385178 -8.70744133 6.4898432584e-07 7.6412611008 -4.1667275429 2.1156175137
          0 0 0 0 0 0
          9.742811203 -6.9396266937 -0.77796304226 5.9848637581 -3.2637984753 1.8847920895
          11.875803947 -7.7922344208 6.0653684386e-07 2.7795844078 -1.8168225288 -0.54990071058
          2.3869690895 -0.92151486874 1.44526577 1.2281181812 -0.61402326822 3.4129584492e-08
          5.6942925453 -4.0893802643 3.1840400538e-07 7.2036995888 -4.6461472511 0.82376885414
          3.6386396885 -2.1607153416 0.6985142827 9.7427310944 -7.0004339218 5.5837313084e-07
          4.7430825233 -2.4950258732 1.6275650263 2.727216959 -1.8705983162 1.3417958655e-07
          7.7748131752 -6.1129255295 -1.2966367006 14.213470459 -8.6452150345 1.0105633736
          10.915631294 -6.1808681488 2.0911793709 0 0 0
          17.39030838 -11.087313652 -1.9269812107 0 0 0
          0 0 0 4.3915452957 -3.3937182426 -1.0775427818
          7.7971014977 -6.2988119125 -0.65532130003 17.430770874 -11.254601479 -0.96595305204
          14.692210197 -10.189995766 -1.7034553289 11.87389946 -7.7305932045 0.89353746176
          1.0423461199 -0.30603972077 -0.66060382128 0 0 0
          8.9238853455 -5.2522544861 1.8522661924 1.9021942616 -0.62699717283 1.1886441708
          4.3727784157 -3.5908269882 -0.55024391413 1.2368383408 -0.58565658331 0.3800162971
          0.87630552053 -0.45419493318 -0.27144408226 5.7192006111 -4.0293755531 0.69190865755
          14.732400894 -10.359815598 -0.85383981466 9.7428121567 -6.9396266937 0.77796417475
          7.7956137657 -6.3596878052 5.1086942676e-07 17.440567017 -11.31158638 8.9497444833e-07
          2.0443294048 -1.4072457552 -0.77655100822 2.7795846462 -1.8168225288 0.54990100861
          0 0 0 12.172725677 -9.4099521637 -1.4793171883
          3.7633750439 -1.9753420353 1.3590561152 7.2173585892 -4.4597110748 1.6144577265
          4.3516330719 -3.6505725384 2.8185240808e-07 14.743163109 -10.417329788 8.310580597e-07
          0.87031006813 -0.48163434863 2.2632827168e-08 1.9628347158 -1.5949993134 -0.39729872346
          12.207840919 -9.5830335617 -0.74139726162 14.177755356 -8.4675416946 1.999358058
          0 0 0 5.9689040184 -5.6264286041 -1.0406064987
          11.836935997 -7.5537629128 1.7709596157 1.9246021509 -1.6478993893 1.0780737369e-07
          5.9816946983 -5.816054821 -0.52553069592 12.216925621 -9.6414937973 7.722470059e-07
          1.464659214 -0.43563789129 0.92540180683 7.7971014977 -6.2988119125 0.65532237291
          9.8103475571 -8.7634973526 -1.2469941378 17.430770874 -11.254601479 0.96595484018
          3.1054787636 -3.109143734 -0.7940030098 5.7353253365 -3.836877346 1.3530211449
          0 0 0 4.3727788925 -3.5908269882 0.55024445057
          9.8381786346 -8.9408416748 -0.62521487474 0.87630558014 -0.45419490337 0.27144414186
          3.0835092068 -3.3036675453 -0.40405526757 14.732401848 -10.359815598 0.85384148359
          9.7122392654 -6.7594037056 1.5404516459 2.8838188648 -1.6270068884 1.0709160566
          20.535675049 -14.052111626 -1.8727450371 0 0 0
          5.9789218903 -5.8767213821 4.608820916e-07 17.478500366 -13.175287247 -1.65272367
          20.570724487 -14.215715408 -0.93611079454 0 0 0
          0.60872238874 -0.23394210637 -0.40416431427 17.512731552 -13.340602875 -0.82652539015
          9.8449010849 -8.9997634888 7.1285052172e-07 0.49996370077 -0.37562674284 -0.1677903235
          1.9628348351 -1.5949993134 0.39729896188 3.0656952858 -3.3614020348 2.4176901547e-07
          12.207841873 -9.5830335617 0.74139881134 14.577722549 -12.412366867 -1.4335273504
          1.1796381474 -1.304718852 -0.49080312252 20.581651688 -14.270313263 1.1093410421e-06
          0 0 0 1.1200995445 -1.4816009998 -0.25069341063
          14.60801506 -12.57980442 -0.71660721302 17.523954391 -13.396016121 1.0354629012e-06
          0.49569922686 -0.40136685967 5.6160636142e-09 7.7748141289 -6.1129250526 1.2966376543
          7.5660648346 -8.2634086609 -1.0071604252 17.39030838 -11.087312698 1.9269829988
          0 0 0 4.2291674614 -5.2994813919 -0.77923047543
          5.9816951752 -5.816054821 0.52553164959 4.3915457726 -3.3937180042 1.0775433779
          14.692210197 -10.189995766 1.7034569979 1.0423463583 -0.30603966117 0.66060394049
          4.2312555313 -5.4862408638 -0.39250841737 7.584713459 -8.4429731369 -0.50457674265
          9.8381795883 -8.9408416748 0.62521630526 3.0835094452 -3.3036673069 0.40405577421
          14.617876053 -12.636098862 9.6635892533e-07 1.0955770016 -1.5336321592 7.9097262073e-08
          11.81327343 -11.774932861 -1.2095288038 1.8005812168 -2.9692287445 -0.51799577475
          2.0443296432 -1.407245636 0.77655124664 20.570724487 -14.215715408 0.93611299992
          12.172726631 -9.4099521637 1.479318738 0 0 0
          7.5889196396 -8.501698494 6.5319613896e-07 4.2271080017 -5.5449404716 4.0816451019e-07
          11.837857246 -11.944970131 -0.6046525836 17.512731552 -13.340601921 0.82652747631
          1.7757884264 -3.1505720615 -0.26301532984 0.49996379018 -0.37562668324 0.1677903384
          5.9689044952 -5.6264286041 1.0406073332 11.845729828 -12.001636505 9.002399679e-07
          14.60801506 -12.57980442 0.71660912037 1.1200996637 -1.4816008806 0.25069358945
          1.761546731 -3.2050893307 2.0202746498e-07 23.610025406 -17.367742538 -1.8287293911
          0 0 0 23.640014648 -17.528951645 -0.91355657578
          9.8103475571 -8.7634973526 1.2469955683 20.196708679 -16.510978699 -1.6119296551
          3.1054792404 -3.1091434956 0.79400354624 5.3888983727 -7.9133019447 -0.76426547766
          0.14726778865 -0.27634736896 -0.16691617668 4.2312555313 -5.4862408638 0.39250922203
          7.584713459 -8.4429731369 0.50457805395 0 0 0
          20.225801468 -16.672925949 -0.8058282733 5.3973736763 -8.0895423889 -0.38206604123
          0.079526230693 -0.40620067716 -0.072403922677 9.154460907 -11.272851944 -0.9810333848
          2.4845283031 -5.1223545074 -0.52483993769 20.535675049 -14.052111626 1.8727471828
          0 0 0 17.478500366 -13.175287247 1.6527256966
          23.649684906 -17.582414627 1.2798107036e-06 2.4765210152 -5.2960953712 -0.26414889097
          9.1719245911 -11.44380188 -0.49004024267 0.60872250795 -0.23394201696 0.40416437387
          16.925430298 -15.765151978 -1.3972387314 0.26085245609 -1.3393917084 -0.23854450881
          0 0 0 11.837857246 -11.944970131 0.60465443134
          1.7757885456 -3.1505720615 0.26301574707 20.235641479 -16.726959229 1.1925823173e-06
          5.3989696503 -8.1463260651 5.9301424926e-07 16.951112747 -15.92807579 -0.69812935591
          0.2121194452 -1.495438695 -0.12264116108 0.069640301168 -0.4342854619 -1.6488368004e-08
          14.577722549 -12.412366867 1.4335292578 1.179638505 -1.3047187328 0.49080333114
          9.1774625778 -11.500062943 8.3592095734e-07 2.4713287354 -5.3510870934 3.5947482502e-07
          7.5660653114 -8.2634086609 1.0071617365 16.959871292 -15.982707024 1.1191250451e-06
          0.19377195835 -1.5461716652 4.6318533009e-08 4.2291684151 -5.2994809151 0.77923130989
          23.640014648 -17.528951645 0.91355913877 13.776286125 -15.138498306 -1.1796317101
          0 0 0 0.44907212257 -2.9715573788 -0.27824792266
          13.797419548 -15.302845001 -0.58934491873 20.225801468 -16.672925949 0.80583065748
          0.07952632755 -0.40620061755 0.072403915226 5.3973736763 -8.0895423889 0.38206723332
          0.42000955343 -3.1285643578 -0.14131169021 11.813274384 -11.774932861 1.209530592
          6.5624375343 -10.910831451 -0.75128602982 9.1719245911 -11.44380188 0.4900419116
          1.8005816936 -2.9692287445 0.51799619198 2.4765212536 -5.2960953712 0.26414960623
          3.2219920158 -7.7076320648 -0.52846968174 6.572095871 -11.07803154 -0.37452945113
          13.804582596 -15.357563972 1.0514180531e-06 16.951112747 -15.92807579 0.69813156128
          0.21211962402 -1.4954385757 0.12264127284 3.2211735249 -7.8719277382 -0.26394557953
          0.40706735849 -3.1791930199 1.6247226142e-07 26.616241455 -21.032152176 -1.7894136906
          0 0 0 -0.23991331458 -0.50512075424 0.0017780525377
          6.5752263069 -11.132316589 7.7375005958e-07 10.723499298 -14.638464928 -0.95925611258
          22.852081299 -20.194221497 -1.5761497021 23.610025406 -17.367742538 1.8287318945
          0 0 0 0 0 0
          3.2208824158 -7.9252519608 5.3899549357e-07 0.72381561995 -5.0855617523 -0.3028204143
          26.643054962 -21.190891266 -0.8939639926 10.739210129 -14.802857399 -0.47882944345
          22.878036499 -20.353063583 -0.7880371213 20.196710587 -16.510976791 1.6119319201
          -0.27958425879 -0.60308414698 0.0012811418856 5.3888993263 -7.9133019447 0.76426666975
          0.14726795256 -0.27634724975 0.16691622138 0.70715683699 -5.236392498 -0.15204319358
          13.797419548 -15.302845001 0.58934700489 0.42000979185 -3.1285641193 0.14131203294
          19.219905853 -19.464252472 -1.3657670021 9.1544618607 -11.272851944 0.98103505373
          2.48452878 -5.1223540306 0.52484065294 0 0 0
          -0.49817726016 -1.571683526 -0.070406511426 26.651491165 -21.243431091 1.3831329397e-06
          -0.29421362281 -0.63594520092 -3.2113042892e-08 10.744513512 -14.85696888 9.9064948245e-07
          19.242706299 -19.623340607 -0.68246549368 16.925430298 -15.765151978 1.3972408772
          22.886695862 -20.405971527 1.2945728258e-06 0.26085281372 -1.3393915892 0.23854465783
          0.69994795322 -5.2867693901 3.1477833318e-07 -0.53988462687 -1.6871750355 -0.029183859006
          6.5720963478 -11.07803154 0.37453100085 3.2211737633 -7.8719277382 0.26394668221
          3.9946782589 -10.685595512 -0.52859574556 19.250440598 -19.676605225 1.2221564702e-06
          -0.55430084467 -1.7325309515 1.9141264573e-08 3.9974236488 -10.841625214 -0.26323765516
          15.70020771 -18.848234177 -1.1535334587 0 0 0
          -0.66111552715 -3.1575582027 -0.11504972726 26.643054962 -21.190891266 0.89396673441
          -0.27958413959 -0.60308408737 -0.0012811857741 10.739211082 -14.802857399 0.47883141041
          15.719135284 -19.008010864 -0.57632690668 13.776286125 -15.138498306 1.1796337366
          22.878036499 -20.353063583 0.7880396843 7.7367453575 -14.269509315 -0.73842960596
          1.0730792284 -7.6374640465 -0.32072287798 0.44907262921 -2.9715571404 0.27824831009
          -0.69030857086 -3.2734134197 -0.052437987179 0.70715713501 -5.236392498 0.15204383433
          7.7466878891 -14.42994976 -0.36789989471 1.0636992455 -7.7811088562 -0.15978190303
          3.9988598824 -10.892640114 7.2035055609e-07 6.5624380112 -10.910831451 0.75128757954
          19.242706299 -19.623340607 0.68246793747 3.2219924927 -7.7076320648 0.52847075462
          15.725543022 -19.061149597 1.1591357634e-06 -0.53988444805 -1.6871750355 0.029183914885
          -0.70158481598 -3.3165047169 1.2911679903e-07 7.7500534058 -14.482039452 9.3201259688e-07
          1.0603311062 -7.8302416801 4.9295414328e-07 -0.7194083333 -5.2159700394 -0.14498080313
          12.270436287 -18.351503372 -0.9394068718 26.616241455 -21.032152176 1.7894164324
          0 0 0 3.9974238873 -10.841625214 0.26323908567
          -0.23991315067 -0.50512069464 -0.0017780276248 -0.73997628689 -5.3306593895 -0.06782271713
          10.723499298 -14.638464928 0.95925807953 22.852081299 -20.194221497 1.5761522055
          12.284992218 -18.510852814 -0.4689194262 29.558408737 -25.04044342 -1.7525485754
          0 0 0 0.72381615639 -5.0855617523 0.30282109976
          29.583312988 -25.196458817 -0.87564748526 -0.23090519011 -0.87593132257 0.030229456723
          25.449701309 -24.220081329 -1.5430496931 15.719135284 -19.008010864 0.57632923126
          0 0 0 -0.69030839205 -3.2734131813 0.052438259125
          25.473800659 -24.37587738 -0.77159518003 -0.24378210306 -0.91315811872 0.019837336615
          7.7466883659 -14.42994976 0.36790174246 1.0636994839 -7.7811088562 0.15978288651
          19.219905853 -19.464252472 1.3657693863 -0.74786537886 -5.3733477592 2.7809076641e-07
          12.289913177 -18.563240051 1.1026356788e-06 -0.49817690253 -1.5716834068 0.070406615734
          4.7861237526 -14.030278206 -0.52443170547 -0.56330168247 -1.9914596081 -0.0063836020418
          21.465528488 -23.50485611 -1.3368520737 1.4755330086 -10.590011597 -0.33144545555
          29.59095192 -25.248065948 1.4119340221e-06 0 0 0
          4.7911009789 -14.180188179 -0.26109802723 25.481716156 -24.427728653 1.324992013e-06
          -0.24980184436 -0.94081187248 -2.8347308501e-08 21.486633301 -23.660474777 -0.66809940338
          -0.58696526289 -2.0472061634 0.007263366133 1.4710884094 -10.727083206 -0.164779827
          3.9946787357 -10.685595512 0.52859711647 4.793138504 -14.229240417 8.8392852149e-07
          -0.69016963243 -7.723133564 -0.1698295325 -0.73997598886 -5.3306593895 0.067823283374
          8.9051923752 -17.977838516 -0.72508788109 21.493715286 -23.71254158 1.2576014115e-06
          15.70020771 -18.848234177 1.1535357237 12.284992218 -18.510852814 0.46892163157
          1.4693530798 -10.774507523 6.7871491183e-07 -0.59635752439 -2.0784225464 1.4254548653e-08
          -0.66111505032 -3.1575582027 0.11505003273 29.583312988 -25.196458817 0.87565028667
          17.587190628 -22.899169922 -1.1294375658 -0.70506095886 -7.8348250389 -0.080598570406
          -0.88717842102 -3.5160880089 -0.030094055459 8.9152002335 -18.133201599 -0.3613216579
          7.7367453575 -14.269509315 0.7384313941 1.0730798244 -7.6374635696 0.32072389126
          0 0 0 -0.90931916237 -3.580753088 -0.0082736359909
          25.473800659 -24.37587738 0.77159780264 -0.24378202856 -0.91315805912 -0.019837372005
          17.604814529 -23.055034637 -0.56434381008 -0.71030730009 -7.8774695396 4.5637705171e-07
          8.9185972214 -18.183567047 1.0514178257e-06 4.7911009789 -14.180188179 0.26109978557
          17.610731125 -23.106838226 1.2015392485e-06 -0.92003834248 -3.6099617481 1.1603733441e-07
          21.486633301 -23.660474777 0.66810190678 -0.58696508408 -2.0472061634 -0.0072633200325
          1.4710887671 -10.727083206 0.164781183 -0.71940773726 -5.2159700394 0.14498139918
          12.270436287 -18.351501465 0.93940901756 13.794522285 -22.406843185 -0.92066073418
          29.558408737 -25.040441513 1.7525513172 0 0 0
          -1.145567894 -5.4988746643 -0.051389466971 -0.2309050411 -0.87593126297 -0.030229423195
          25.449701309 -24.220079422 1.5430523157 -0.70506066084 -7.8348250389 0.080599486828
          8.9152011871 -18.133201599 0.36132374406 13.808341026 -22.561992645 -0.45961102843
          1.9131462574 -13.914123535 -0.33468189836 -1.1647911072 -5.5712981224 -0.020068027079
          -0.90931898355 -3.580753088 0.0082738809288 17.604814529 -23.05503273 0.56434619427
          1.9123672247 -14.04656601 -0.16646166146 5.5853028297 -17.727140427 -0.51740896702
          -0.59345811605 -10.64070034 -0.18833984435 32.440162659 -29.38674736 -1.7173690796
          0 0 0 27.993421555 -28.58297348 -1.5116820335
          4.7861242294 -14.030277252 0.52443349361 -0.56330144405 -1.9914594889 0.0063837063499
          21.465528488 -23.50485611 1.3368545771 -0.602602005 -10.748900414 -0.090128906071
          5.5913572311 -17.872537613 -0.2577817142 1.4755336046 -10.590011597 0.33144682646
          32.463798523 -29.53994751 -0.85812395811 0 0 0
          -1.1730231047 -5.6013083458 2.5904594736e-07 13.813004494 -22.612979889 1.1554948287e-06
          0.0017904365668 -1.0407838821 -0.0013690515189 28.016298294 -28.735790253 -0.75596809387
          0.001460022293 -1.0536173582 -0.00058633583831 1.9114267826 -14.092515945 8.4933071776e-07
          23.665481567 -27.881748199 -1.3095246553 -0.60623282194 -10.79146862 6.4693745117e-07
          5.5936470032 -17.920085907 1.0128579788e-06 32.470954895 -29.590606689 1.3515619912e-06
          0 0 0 0.0032081659883 -2.2073020935 -0.0017108584289
          23.68551445 -28.034135818 -0.65448576212 28.023752213 -28.786624908 1.2701411833e-06
          -0.69016903639 -7.723133564 0.16983047128 8.9051923752 -17.977838516 0.72508996725
          0.0014596192632 -1.0736092329 -2.1398994576e-08 0.0030052787624 -2.2369327545 -0.00088448193856
          17.587190628 -22.899169922 1.1294398308 -0.88717800379 -3.5160880089 0.030094342306
          -1.3148460388 -7.9490275383 -0.079172462225 10.064852715 -22.030675888 -0.71200942993
          -1.1647908688 -5.5712981224 0.02006855607 13.808341026 -22.561992645 0.45961329341
          -1.3315447569 -8.025800705 -0.032463673502 10.074850082 -22.181903839 -0.35489466786
          1.9123674631 -14.04656601 0.16646334529 23.692199707 -28.085103989 1.2106825125e-06
          0.00293770805 -2.2598826885 2.0317921567e-08 19.438726425 -27.286384583 -1.1065770388
          -0.60260170698 -10.748900414 0.090130202472 5.591357708 -17.872537613 0.25778374076
          32.463798523 -29.53994751 0.85812664032 0 0 0
          0.0044516418129 -3.7259371281 -0.0019446777878 19.45554924 -27.43872261 -0.55295163393
          28.016298294 -28.735790253 0.75597059727 0.0043019172736 -3.7664599419 -0.00098936248105
          -1.3377691507 -8.0568170547 4.3534990368e-07 10.078372002 -22.230981827 1.1183050219e-06
          0.0014600817813 -1.0536173582 0.00058630999411 23.68551445 -28.034135818 0.65448814631
          19.461174011 -27.489347458 1.1686727248e-06 0.0042599067092 -3.788869381 1.2052906584e-07
          13.794522285 -22.406843185 0.92066293955 2.3750202656 -17.592983246 -0.33316797018
          0.0030053930823 -2.2369327545 0.00088454131037 -1.1455674171 -5.4988746643 0.05139002949
          -0.44362586737 -13.930854797 -0.19552342594 2.3763341904 -17.722290039 -0.16573646665
          1.9131467342 -13.914122581 0.33468356729 -0.44746389985 -14.036952019 -0.09425765276
          -1.3315445185 -8.025800705 0.032464552671 10.074850082 -22.181903839 0.35489687324
          5.5853028297 -17.727140427 0.51741093397 -0.59345757961 -10.640699387 0.18834114075
          0.005498632323 -5.6818370819 -0.0022361280862 15.294886589 -26.799684525 -0.9026954174
          32.440162659 -29.38674736 1.7173717022 0 0 0
          27.993419647 -28.58297348 1.5116844177 0.0053312340751 -5.7333374023 -0.0011147679761
          2.3759222031 -17.767038345 9.8927284853e-07 -1.3937369585 -10.820894241 -0.10363284498
          6.38823843 -21.770656586 -0.51002150774 15.308264732 -26.951087952 -0.45068019629
          0.0017905574059 -1.0407838821 0.001369084348 -0.45016813278 -14.078877449 8.2562121406e-07
          19.45554924 -27.43872261 0.55295395851 0.0043020681478 -3.7664597034 0.00098961615004
          6.3947649002 -21.912567139 -0.2541718483 -1.4058147669 -10.901516914 -0.043252624571
          23.665481567 -27.881748199 1.3095270395 0.0052991146222 -5.7563714981 2.6521809104e-07
          15.312784195 -27.000865936 1.1367305888e-06 0.003208408365 -2.2073020935 0.0017109708861
          6.3973450661 -21.959085464 1.0931427141e-06 35.264431 -34.065097809 -1.683594346
          0 0 0 -1.4119836092 -10.934862137 6.3102737613e-07
          35.28711319 -34.215530396 -0.84126704931 0 0 0
          2.3763344288 -17.722290039 0.1657384336 30.486000061 -33.277179718 -1.4816260338
          -1.314845562 -7.9490275383 0.079173363745 10.064852715 -22.030675888 0.7120115757
          0.23429709673 -0.87634122372 -0.032733660191 -0.44746369123 -14.036952019 0.094259299338
          30.507972717 -33.427135468 -0.74096387625 0.24662287533 -0.9138610363 -0.020881589502
          19.438726425 -27.286384583 1.1065793037 35.293949127 -34.265258789 1.1977984968e-06
          0.0053313914686 -5.7333374023 0.0011153041851 25.821846008 -32.589492798 -1.2833178043
          0.56935030222 -1.9924223423 0.0034510730766 15.308264732 -26.951087952 0.45068246126
          0 0 0 11.21367836 -26.423585892 -0.6993445158
          0.0062970751897 -8.1078176498 -0.002614405239 0.004451984074 -3.7259368896 0.0019449692918
          0.59272748232 -2.0486261845 -0.0087478747591 25.841140747 -32.738857269 -0.64140534401
          30.515111923 -33.47700119 1.1291956525e-06 6.3947649002 -21.912567139 0.25417402387
          0.0060983509757 -8.1698713303 -0.0012879889691 11.223692894 -26.571126938 -0.34863260388
          -1.4058145285 -10.901516914 0.043253887445 0.25266084075 -0.94156676531 -1.1748371165e-08
          -0.25144171715 -17.578224182 -0.19468347728 25.847566605 -32.788803101 1.08358131e-06
          2.375020504 -17.592983246 0.33316990733 0.60200965405 -2.0799245834 4.304742518e-08
          0.0060644247569 -8.1922779083 4.4461225457e-07 -0.25192448497 -17.683433533 -0.094180345535
          11.22729969 -26.619110107 1.1145897361e-06 -0.44362536073 -13.930854797 0.19552505016
          35.28711319 -34.215530396 0.8412694335 21.255550385 -32.00460434 -1.0845268965
          -1.4000533819 -14.055550575 -0.10923570395 0 0 0
          0.8954488039 -3.5179414749 0.026971396059 2.8559243679 -21.621032715 -0.33024039865
          0.91739273071 -3.5831873417 0.0067060347646 21.271875381 -32.153705597 -0.54194825888
          30.50797081 -33.427135468 0.74096608162 -1.4067192078 -14.138174057 -0.047269143164
          2.8582489491 -21.7480793 -0.16410276294 0.24662293494 -0.9138610363 0.020881585777
          0.0054990258068 -5.6818370819 0.0022366815247 15.294886589 -26.799684525 0.90269756317
          -0.25379189849 -17.724431992 9.760260582e-07 -1.3937364817 -10.820894241 0.10363409668
          6.38823843 -21.770656586 0.5100235939 21.277326584 -32.203258514 1.0550463685e-06
          25.841140747 -32.738857269 0.64140748978 -1.413110137 -14.172296524 8.1569265831e-07
          0.59272760153 -2.0486261845 0.0087479734793 0.92803442478 -3.6124901772 1.435751642e-07
          0.0060984781012 -8.1698713303 0.0012888760539 11.223692894 -26.571126938 0.34863480926
          2.8583235741 -21.791952133 1.0822850527e-06 7.1932401657 -26.157648087 -0.50268769264
          0.0067986124195 -10.955049515 -0.0030363940168 7.2000555992 -26.296491623 -0.25048518181
          0.0065781008452 -11.02983284 -0.0014930117177 35.264431 -34.065097809 1.6835967302
          0 0 0 -0.25192430615 -17.683433533 0.094182282686
          1.1556420326 -5.5019273758 0.048001352698 16.770561218 -31.524562836 -0.88514620066
          1.1746411324 -5.5750589371 0.018381565809 30.486000061 -33.277179718 1.4816281796
          0.23429720104 -0.87634128332 0.03273370862 16.783746719 -31.672563553 -0.44194746017
          21.271875381 -32.153705597 0.54195034504 -1.4067190886 -14.138174057 0.047270763665
          0.91739284992 -3.5831873417 -0.0067057400011 2.8582489491 -21.7480793 0.1641049087
          7.2027616501 -26.342128754 1.104566536e-06 0.0065420255996 -11.055831909 6.3602971068e-07
          25.821844101 -32.589492798 1.2833198309 0.56935054064 -1.9924223423 -0.0034509357065
          11.21367836 -26.423585892 0.69934666157 1.1828097105 -5.6051683426 2.8599671964e-07
          0.006297452841 -8.1078176498 0.0026152839419 16.788196564 -31.721252441 1.0398026689e-06
          38.033565521 -39.069664001 -1.651065588 0 0 0
          -0.25144135952 -17.578224182 0.19468536973 7.2000555992 -26.296491623 0.25048735738
          0 0 0 32.929485321 -38.297035217 -1.4526352882
          -1.3583654165 -17.65439415 -0.10350458324 0.0065781734884 -11.02983284 0.001494274009
          0.24269685149 -0.5058786869 -0.0035607784521 -0.028003565967 -21.580360413 -0.19103008509
          38.055473328 -39.217456818 -0.8250194788 21.255550385 -32.00460434 1.084528923
          32.95072937 -38.444293976 -0.72647827864 0.28205409646 -0.60421180725 -0.0020100020338
          -1.4000530243 -14.055550575 0.10923729092 -1.3618488312 -17.73767662 -0.045884095132
          0.89544916153 -3.5179414749 -0.026971079409 12.348812103 -31.150651932 -0.6865901947
          1.1746413708 -5.5750589371 -0.018380992115 2.8559246063 -21.621032715 0.33024248481
          1.3262856007 -7.95347929 0.075368963182 16.783744812 -31.672563553 0.44194951653
          -0.027149226516 -21.685123444 -0.09247545898 1.3427052498 -8.0311117172 0.030578155071
          12.359000206 -31.294843674 -0.34233278036 27.935977936 -37.622589111 -1.2579376698
          38.062084198 -39.266304016 9.4604519063e-07 0.50311434269 -1.5733566284 0.068514510989
          0 0 0 27.954740524 -37.769145966 -0.62872749567
          0.54470741749 -1.6893376112 0.028234697878 32.957633972 -38.493251801 8.9464634812e-07
          3.3517127037 -25.996566772 -0.32679820061 -1.3677462339 -17.771808624 9.7141116839e-07
          -0.028419625014 -21.72526741 1.0797492678e-06 0.006966155488 -14.149588585 -0.0034925211221
          0.29673266411 -0.63715082407 5.0225188453e-09 3.3545591831 -26.121519089 -0.16217665374
          12.362669945 -31.341812134 1.0337267895e-06 0.0067271646112 -14.228837967 -0.0017188191414
          1.348867774 -8.0622367859 4.5545715466e-07 7.1932401657 -26.157648087 0.50268983841
          27.960987091 -37.818145752 8.654531598e-07 0.006798914168 -10.955049515 0.0030376266222
          0.5590659976 -1.7348021269 6.4050247772e-08 23.037946701 -37.048366547 -1.0629838705
          38.055469513 -39.217456818 0.82502132654 3.3549048901 -26.164581299 1.1079637261e-06
          0.6678019166 -3.1606299877 0.11318530142 1.1556423903 -5.5019273758 -0.048000779003
          0.006688860245 -14.256587029 8.1157349996e-07 16.770561218 -31.524562836 0.88514822721
          0 0 0 23.053981781 -37.194503784 -0.53119021654
          0.69692659378 -3.277025938 0.051507584751 32.95072937 -38.444293976 0.72648006678
          -1.361848712 -17.73767662 0.045886021107 -0.027149155736 -21.685123444 0.092477597296
          0.28205415606 -0.60421180725 0.0020100241527 12.358999252 -31.294843674 0.34233483672
          1.342705369 -8.0311117172 -0.030577251688 27.954740524 -37.769145966 0.62872922421
          23.059333801 -37.243076324 8.5396783334e-07 7.9957633018 -30.882171631 -0.49465218186
          1.4060547352 -10.826855659 0.099286682904 0.70815497637 -3.3202424049 1.62141788e-07
          0.5447075367 -1.6893377304 -0.028234560043 1.4178067446 -10.90850544 0.041099939495
          3.3545591831 -26.121519089 0.16217884421 8.0028858185 -31.018127441 -0.24651525915
          0.0067271706648 -14.228837967 0.0017204267206 18.220472336 -36.575885773 -0.86770045757
          38.033565521 -39.069664001 1.6510673761 0 0 0
          0.72749972343 -5.2208352089 0.14309196174 18.233654022 -36.720794678 -0.43325546384
          32.929481506 -38.297035217 1.4526370764 0.74798244238 -5.3361382484 0.066883407533
          -1.3583651781 -17.65439415 0.10350645334 8.0055761337 -31.062892914 1.0392797094e-06