<?xml version="1.0"?>
<VTKFile type="UnstructuredGrid" version="0.1" byte_order="LittleEndian" header_type="UInt32" compressor="vtkZLibDataCompressor">
  <UnstructuredGrid>
    <Piece NumberOfPoints="6405" NumberOfCells="4800">
      <PointData>
        <DataArray type="Float32" Name="DISPLACEMENT" NumberOfComponents="3" ComponentName0="X-DISPLACEMENT" ComponentName1="Y-DISPLACEMENT" ComponentName2="Z-DISPLACEMENT" format="ascii" RangeMin="0" RangeMax="283.35066734">
          0 0 0 0 0 0
          2.4129681587 -1.537070632 -1.0972970724 0 0 0
          1.4740644693 -0.94159567356 -0.80968052149 0 0 0
          2.2168805599 -1.704174161 -0.43168225884 1.2850898504 -1.0765519142 -0.33026963472
          0 0 0 4.2892584801 -2.9498996735 -1.0954078436
          0 0 0 4.2413864136 -3.1353437901 -0.56412106752
          2.9456262589 -2.4988870621 -0.89195042849 0 0 0
          0 0 0 2.226426363 -1.7551386356 3.9425975729e-07
          0.98390376568 -0.66527462006 -0.58306652308 1.2810484171 -1.0992048979 1.7992390156e-07
          2.8905005455 -2.6451416016 -0.45469638705 0.83993965387 -0.78502988815 -0.24062988162
          4.1957716942 -3.1860992908 1.0739786376e-06 1.9807362556 -2.1602225304 -0.68220192194
          0 0 0 2.8538405895 -2.6916105747 6.5759627432e-07
          1.9179862738 -2.2876360416 -0.34905785322 0 0 0
          5.9295144081 -4.7459788322 -0.99674385786 0 0 0
          0.83488047123 -0.80173927546 -1.2321007148e-07 0 0 0
          0 0 0 2.2168807983 -1.7041739225 0.43168309331
          4.2964115143 -4.3237848282 -0.83758348227 5.9600110054 -4.8728370667 -0.50838798285
          0.4439984858 -0.51622146368 -0.35409045219 1.2850902081 -1.0765515566 0.33027005196
          4.3219356537 -4.4422903061 -0.42662224174 0.32383516431 -0.63511836529 -0.16246075928
          1.8880447149 -2.3250567913 1.4197777887e-07 4.2413873672 -3.1353430748 0.5641232729
          0 0 0 0 0 0
          1.0474506617 -1.9716416597 -0.49918657541 3.0077371597 -4.0068702698 -0.68150734901
          5.9465322495 -4.9184341431 2.0205959572e-06 2.8905014992 -2.6451406479 0.45469778776
          3.0047328472 -4.1161642075 -0.34648150206 0.83994019032 -0.78502941132 0.24062974751
          4.3145418167 -4.4810967445 1.3936769392e-06 0.98647087812 -2.0863676071 -0.25337788463
          0.31085297465 -0.65011078119 -5.1768193998e-07 0 0 0
          7.3978915215 -6.7382926941 -0.86139374971 0 0 0
          5.5595393181 -6.3579602242 -0.75445014238 1.9179873466 -2.2876348495 0.34905821085
          7.451479435 -6.8220524788 -0.4366158843 2.4129691124 -1.5370701551 1.0972981453
          0 0 0 0 0 0
          0.96501982212 -2.1209661961 -4.9705562333e-07 2.9948391914 -4.1494541168 6.808114108e-07
          -0.038144797087 -0.56444549561 -0.17669421434 5.6066641808 -6.4414329529 -0.38040021062
          1.474065423 -0.9415948987 0.80968123674 1.789821744 -3.7896387577 -0.52808332443
          0 0 0 5.9600124359 -4.872836113 0.50839209557
          -0.11681857705 -0.68089282513 -0.093535132706 1.7698919773 -3.8916392326 -0.26816520095
          4.3219370842 -4.4422888756 0.42662507296 0.32383611798 -0.63511770964 0.16245986521
          4.0186519623 -6.0530204773 -0.64397644997 0.14235797524 -1.9206370115 -0.30724295974
          7.4540524483 -6.8516235352 3.1852578104e-06 4.2892603874 -2.9498980045 1.0954102278
          0 0 0 0 0 0
          4.0373859406 -6.1337542534 -0.32511112094 2.9456281662 -2.4988853931 0.89195203781
          5.6149029732 -6.4699878693 2.3612522e-06 0.094692222774 -2.0370249748 -0.16047306359
          0.98390471935 -0.66527354717 0.58306670189 -0.12831425667 -0.70996522903 -1.1425152024e-06
          1.7605224848 -3.9203896523 -1.6504544931e-07 3.0047342777 -4.1161623001 0.34648290277
          0.98647242785 -2.086366415 0.25337696075 4.040037632 -6.1597995758 1.456036216e-06
          1.980738163 -2.1602203846 0.68220245838 0.083073526621 -2.0707032681 -1.343758413e-06
          2.5679926872 -5.8317651749 -0.5368219018 7.4514813423 -6.8220510483 0.4366222918
          5.9295172691 -4.7459764481 0.99674814939 0 0 0
          8.6978292465 -8.8601112366 -0.74893796444 0 0 0
          0 0 0 0.51161152124 -3.6688666344 -0.3693728745
          2.5617799759 -5.9059538841 -0.27161955833 8.748717308 -8.9119005203 -0.37681925297
          6.7207164764 -8.519695282 -0.68198251724 5.6066660881 -6.4414310455 0.38040497899
          -0.70200300217 -0.72904038429 -0.018367983401 0 0 0
          4.2964143753 -4.323782444 0.8375865221 0.44399979711 -0.51622015238 0.35408994555
          0.47447839379 -3.7659449577 -0.19384796917 -0.1168173328 -0.68089199066 0.093533016741
          -0.80316102505 -0.83414822817 -0.031564552337 1.7698937654 -3.8916375637 0.26816493273
          6.7661013603 -8.5745382309 -0.34125056863 4.0373878479 -6.133752346 0.32511407137
          2.5611763 -5.9298100471 4.3930430138e-07 8.7573518753 -8.9309558868 4.5493684411e-06
          -0.75491732359 -2.0556755066 -0.23281684518 0.094693921506 -2.0370235443 0.16047039628
          0 0 0 4.9944219589 -8.2443170547 -0.61249870062
          1.0474530458 -1.9716391563 0.49918577075 3.0077400208 -4.0068669319 0.68150889874
          0.46669888496 -3.7933762074 -1.1693238093e-06 6.7782211304 -8.5938634872 3.5514235606e-06
          -0.81922584772 -0.86871618032 -2.2324404654e-06 -0.82200163603 -2.1340887547 -0.10508044809
          5.0178413391 -8.297826767 -0.30646306276 7.3978948593 -6.7382893562 0.86140036583
          0 0 0 1.0390075445 -5.6754117012 -0.44781908393
          5.5595431328 -6.3579568863 0.75445508957 -0.82488054037 -2.1742148399 -2.6862717277e-06
          1.011677742 -5.7391810417 -0.22638902068 5.0253639221 -8.3165483475 2.4846751785e-06
          -0.038143359125 -0.56444352865 0.17669248581 2.5617821217 -5.9059519768 0.27162051201
          3.3795816898 -8.0425262451 -0.54996335506 8.7487192154 -8.911898613 0.37682843208
          -0.5363522768 -3.744809866 -0.33951756358 1.7898248434 -3.7896354198 0.52808314562
          0 0 0 0.47448036075 -3.7659430504 0.1938456893
          3.3833229542 -8.0892839432 -0.2753316164 -0.80315929651 -0.83414721489 0.031560253352
          -0.58241403103 -3.7991535664 -0.15991595387 6.7661037445 -8.5745363235 0.34125772119
          4.0186553001 -6.0530166626 0.64397960901 0.14236059785 -1.9206340313 0.30724036694
          9.8500499725 -11.046556473 -0.66478568316 0 0 0
          1.0091240406 -5.7612366676 -6.9047149509e-07 7.7823204994 -10.740888596 -0.62411659956
          9.8907651901 -11.078671455 -0.33364841342 0 0 0
          -1.5841268301 -0.93454253674 3.7614296161e-05 7.8197183609 -10.776614189 -0.31131142378
          3.3868153095 -8.1073741913 1.3278648794e-06 -1.723115325 -0.97482943535 -0.0098972180858
          -0.82199949026 -2.1340873241 0.10507515818 -0.5820761919 -3.8328127861 -2.5517504127e-06
          5.0178437233 -8.2978248596 0.30646809936 5.915579319 -10.492004395 -0.58032035828
          -1.6346104145 -2.2781529427 -0.26552227139 9.9001607895 -11.091005325 6.0943998506e-06
          0 0 0 -1.7096127272 -2.2898161411 -0.11494479328
          5.9404320717 -10.527276039 -0.28950160742 7.8309345245 -10.789739609 4.9417808441e-06
          -1.7290713787 -1.016268611 -4.0014697333e-06 2.5679967403 -5.8317613602 0.53682303429
          1.749456048 -7.8807401657 -0.51157361269 8.6978330612 -8.8601074219 0.74894732237
          0 0 0 -0.15404720604 -5.664083004 -0.42382070422
          1.0116802454 -5.7391791344 0.22638773918 0.51161491871 -3.6688628197 0.36937075853
          6.7207212448 -8.5196914673 0.68198984861 -0.70200127363 -0.72903764248 0.018364056945
          -0.17380203307 -5.7018942833 -0.20618095994 1.7418519258 -7.9174032211 -0.25136762857
          3.3833255768 -8.0892810822 0.27533432841 -0.58241152763 -3.7991514206 0.15991097689
          5.9484038353 -10.540014267 3.7335473735e-06 -1.7105822563 -2.3192250729 -4.5029478315e-06
          4.1850495338 -10.312563896 -0.54049909115 -1.4346138239 -3.9495842457 -0.3849427402
          -0.75491410494 -2.0556719303 0.23281168938 9.8907680511 -11.078668594 0.33366063237
          4.9944267273 -8.2443122864 0.61250388622 0 0 0
          1.7432281971 -7.932598114 7.7480656557e-08 -0.16974027455 -5.7246184349 -2.0682061859e-06
          4.1989059448 -10.342652321 -0.27009108663 7.8197207451 -10.776612282 0.31132137775
          -1.4770480394 -3.949038744 -0.17924970388 -1.72311306 -0.97482824326 0.0098893679678
          1.0390119553 -5.6754074097 0.44781807065 4.2031211853 -10.354401588 2.4589744498e-06
          5.9404344559 -10.527274132 0.28950914741 -1.7096101046 -2.2898144722 0.11493592709
          -1.4722623825 -3.9716770649 -4.3205573093e-06 10.890319824 -13.254634857 -0.60843813419
          0 0 0 10.919571877 -13.277706146 -0.30502587557
          3.3795862198 -8.0425214767 0.54996621609 8.7601518631 -12.973758698 -0.57937008142
          -0.53634822369 -3.7448055744 0.33951276541 0.36585259438 -7.8022065163 -0.45753666759
          -0.77176177502 -1.3093231916 0.42774108052 -0.17379909754 -5.7018923759 0.20617690682
          1.7418551445 -7.9174008369 0.25136786699 0 0 0
          8.7884454727 -13.000534058 -0.2885850966 0.36495679617 -7.8359060287 -0.23001751304
          -0.7657263875 -1.3902517557 0.11748159677 2.5202651024 -10.168527603 -0.51215797663
          -1.129729867 -5.8362417221 -0.4564794302 9.8500547409 -11.046551704 0.66479808092
          0 0 0 7.7823257446 -10.740883827 0.62412667274
          10.928072929 -13.286808014 7.7994018284e-06 -1.1465203762 -5.8380184174 -0.21604128182
          2.528717041 -10.193294525 -0.25377202034 -1.5841245651 -0.93453872204 -4.5136097469e-05
          6.7786068916 -12.746697426 -0.54537940025 -1.9381625652 -2.545378685 -0.0032379738986
          0 0 0 4.198908329 -10.34264946 0.27009603381
          -1.4770451784 -3.9490365982 0.17924119532 8.7973861694 -13.010353088 6.5041322159e-06
          0.36965182424 -7.8474788666 -1.31099182e-06 6.802945137 -12.773438454 -0.27156981826
          -2.0194687843 -2.6387627125 -0.049405943602 -0.76053094864 -1.3996291161 -2.6760969831e-06
          5.9155845642 -10.491999626 0.58032798767 -1.6346065998 -2.2781484127 0.26551350951
          2.5322039127 -10.202224731 1.1017701809e-06 -1.1378268003 -5.855568409 -3.7977329157e-06
          1.7494614124 -7.8807353973 0.51157397032 6.8102645874 -12.782538414 5.16022601e-06
          -1.9114986658 -2.6364524364 -5.2835180213e-06 -0.15404228866 -5.6640782356 0.42381680012
          10.919574738 -13.277703285 0.30504152179 4.9402689934 -12.592278481 -0.51211434603
          0 0 0 -2.2339303493 -4.2192573547 -0.43250101805
          4.9598555565 -12.613527298 -0.25569912791 8.7884483337 -13.000531197 0.28859815001
          -0.76572620869 -1.3902505636 -0.11748684943 0.36495992541 -7.8359036446 0.23001489043
          -2.2823946476 -4.1929087639 -0.21358513832 4.1850547791 -10.312559128 0.54050415754
          0.93496793509 -10.068301201 -0.46376141906 2.5287203789 -10.193291664 0.25377422571
          -1.4346092939 -3.9495792389 0.38493436575 -1.146517396 -5.8380160332 0.21603375673
          -0.73944723606 -7.931248188 -0.485527426 0.93538480997 -10.091306686 -0.23664286733
          4.9648594856 -12.620703697 3.7573013287e-06 6.802947998 -12.773435593 0.27158018947
          -2.0194683075 -2.6387608051 0.049395460635 -0.74643582106 -7.9357624054 -0.23149418831
          -2.2701060772 -4.1990046501 -6.2728649937e-06 11.862268448 -15.466999054 -0.57768559456
          0 0 0 -0.55248934031 -1.5363563299 0.32396286726
          0.94067472219 -10.097867966 -3.7461191482e-07 3.2205252647 -12.488880157 -0.48943525553
          9.6757745743 -15.199856758 -0.54752278328 10.890325546 -13.254629135 0.60845392942
          0 0 0 0 0 0
          -0.73520553112 -7.951654911 -3.0535807127e-06 -1.9703146219 -6.1342926025 -0.52772080898
          11.880364418 -15.489998817 -0.28906586766 3.2343659401 -12.501625061 -0.24504047632
          9.6947422028 -15.226139069 -0.27232018113 8.7601575851 -12.973753929 0.57938325405
          -0.52134788036 -1.5568442345 0.14104883373 0.365858078 -7.8022012711 0.45753404498
          -0.77176332474 -1.3093219995 -0.4277458787 -1.9951565266 -6.1005649567 -0.25198695064
          4.9598588943 -12.613524437 0.2557066679 -2.2823917866 -4.1929063797 0.21357268095
          7.5804915428 -14.991244316 -0.51145398617 2.5202708244 -10.168522835 0.512160182
          -1.1297248602 -5.8362364769 0.45647194982 0 0 0
          -0.9853836894 -2.8393890858 0.26051539183 11.887325287 -15.498596191 9.6448684417e-06
          -0.52672308683 -1.5815743208 -2.0914408196e-06 3.2390768528 -12.506953239 2.2740784971e-06
          7.6018981934 -15.016683578 -0.25380709767 6.7786130905 -12.746691704 0.54538983107
          9.7010774612 -15.235125542 8.2150891103e-06 -1.9381626844 -2.5453753471 0.0032292220276
          -1.98501122 -6.1070713997 -5.8239725149e-06 -1.0232676268 -2.9325623512 0.12741003931
          0.93538796902 -10.091304779 0.23664210737 -0.74643272161 -7.9357595444 0.23148809373
          -0.28222370148 -10.158895493 -0.50760483742 7.607831955 -15.024358749 6.7365817813e-06
          -1.0299471617 -2.9563426971 -3.9602859943e-06 -0.28212809563 -10.153806686 -0.24581800401
          5.6222057343 -14.873977661 -0.4779574573 0 0 0
          -1.4439188242 -4.2275705338 0.14101716876 11.880367279 -15.489995956 0.28908517957
          -0.52134764194 -1.5568436384 -0.14105273783 3.2343690395 -12.5016222 0.24504503608
          5.6440262794 -14.890751839 -0.23749044538 4.9402747154 -12.592272758 0.51212197542
          9.6947450638 -15.226136208 0.27233666182 1.5331907272 -12.409500122 -0.48847672343
          -1.6087007523 -8.2292346954 -0.57686948776 -2.2339260578 -4.2192521095 0.43248876929
          -1.5079483986 -4.3728485107 0.037505172193 -1.9951534271 -6.1005625725 0.25197538733
          1.536190629 -12.41085434 -0.24307408929 -1.6196479797 -8.1902103424 -0.27412709594
          -0.26930838823 -10.166540146 -2.1719165488e-06 0.93497365713 -10.068295479 0.4637606144
          7.6019015312 -15.016680717 0.25382059813 -0.73944181204 -7.931242466 0.48552134633
          5.6490364075 -14.89602375 5.19675541e-06 -1.0232671499 -2.9325611591 -0.12741777301
          -1.5183105469 -4.3860058784 -5.1969986998e-06 1.5406583548 -12.413830757 6.5921045689e-07
          -1.6058754921 -8.1980514526 -5.1245806389e-06 -1.8429988623 -6.0354671478 0.069030031562
          3.8379845619 -14.83423233 -0.46689984202 11.862275124 -15.466993332 0.57770502567
          0 0 0 -0.28212487698 -10.153803825 0.24581369758
          -0.55249047279 -1.5363562107 -0.32396650314 -1.9430104494 -6.2038006783 -0.060259349644
          3.2205312252 -12.488874435 0.48943984509 9.67578125 -15.199850082 0.54753935337
          3.8563323021 -14.83669281 -0.23287177086 12.80794239 -17.693681717 -0.56842213869
          0 0 0 -1.9703096151 -6.1342868805 0.52770930529
          12.815911293 -17.722728729 -0.28378424048 -0.37974184752 -1.5459015369 0.28701019287
          10.554808617 -17.428073883 -0.52853894234 5.6440291405 -14.890748978 0.23750087619
          0 0 0 -1.507948041 -4.3728466034 -0.037515487522
          10.564605713 -17.45971489 -0.26264694333 -0.32460013032 -1.5466117859 0.12278079242
          1.5361939669 -12.410851479 0.24307544529 -1.6196447611 -8.1902074814 0.27411690354
          7.5804982185 -14.991238594 0.51146763563 -1.9130858183 -6.1847734451 -5.937899914e-06
          3.8611893654 -14.840717316 3.5898722217e-06 -0.98538446426 -2.8393881321 -0.26052236557
          0.2219324559 -12.459392548 -0.5259463191 -0.71008878946 -2.9303817749 0.31341463327
          8.3308353424 -17.221672058 -0.48136022687 -1.1976033449 -10.436104774 -0.60601985455
          12.820888519 -17.732717514 1.16136207e-05 0 0 0
          0.23497191072 -12.445465088 -0.25819987059 10.568419456 -17.469610214 1.0054992345e-05
          -0.32928234339 -1.5593546629 -1.3229042679e-06 8.3467311859 -17.251270294 -0.23851144314
          -0.70524275303 -2.9679152966 0.16773067415 -1.1908909082 -10.392745972 -0.29205560684
          -0.28221789002 -10.158889771 0.50760048628 0.24629764259 -12.448702812 -1.143927193e-06
          -2.2850613594 -8.5132646561 -0.51665735245 -1.9430096149 -6.2037992477 0.060247648507
          2.1770412922 -14.813524246 -0.49495145679 8.3510217667 -17.258844376 8.4543353296e-06
          5.6222119331 -14.873971939 0.47796803713 3.85633564 -14.836689949 0.23287899792
          -1.1735622883 -10.399008751 -4.2535621105e-06 -0.69695341587 -2.9896626472 -2.6543466447e-06
          -1.4439190626 -4.2275691032 -0.14102633297 12.815915108 -17.722726822 0.2838074863
          6.2161269188 -17.123994827 -0.43766832352 -2.322167635 -8.5164480209 -0.2863830328
          -1.047078371 -4.3802480698 0.28944283724 2.1921284199 -14.802898407 -0.24214665592
          1.5331968069 -12.4094944 0.48847821355 -1.6086952686 -8.2292289734 0.57685935497
          0 0 0 -1.071372509 -4.4682888985 0.15438747406
          10.564608574 -17.459712982 0.2626670897 -0.32460013032 -1.5466116667 -0.12278331071
          6.2360510826 -17.141296387 -0.2177990824 -2.2784693241 -8.4888105392 -6.841423783e-06
          2.1979224682 -14.804023743 1.9069454993e-06 0.23497526348 -12.445462227 0.25819763541
          6.2398853302 -17.145738602 6.8102854129e-06 -1.0737957954 -4.4988889694 -3.8047983253e-06
          8.3467340469 -17.251266479 0.23852838576 -0.70524287224 -2.9679150581 -0.16773585975
          -1.1908876896 -10.392743111 0.29204717278 -1.8429982662 -6.0354652405 -0.069040246308
          3.8379909992 -14.834226608 0.466907233 4.356030941 -17.136594772 -0.42966970801
          12.807949066 -17.693675995 0.56844544411 0 0 0
          -1.3804485798 -6.1292881966 0.23677141964 -0.3797429502 -1.5459020138 -0.28701266646
          10.554815292 -17.428068161 0.52855920792 -2.3221650124 -8.5164461136 0.28636947274
          2.1921322346 -14.802895546 0.24215051532 4.3770661354 -17.133972168 -0.21475870907
          -0.764985919 -12.716560364 -0.60980498791 -1.406758666 -6.2553348541 0.11972559243
          -1.0713726282 -4.4682884216 -0.15439485013 6.2360548973 -17.141294479 0.21781274676
          -0.74002557993 -12.680132866 -0.29392313957 0.76441961527 -14.840268135 -0.51532369852
          -2.0109772682 -10.802584648 -0.6835796833 13.75841713 -19.963647842 -0.57498711348
          0 0 0 11.423922539 -19.692207336 -0.52272439003
          0.22193865478 -12.459385872 0.52594411373 -0.71009010077 -2.9303824902 -0.31341943145
          8.3308420181 -17.221666336 0.4813772738 -1.9930341244 -10.749243736 -0.34434071183
          0.78291350603 -14.82353878 -0.25687667727 -1.1975975037 -10.436098099 0.60601139069
          13.758152008 -20.001302719 -0.28666511178 0 0 0
          -1.4213411808 -6.292696476 -4.7093535613e-06 4.380961895 -17.136323929 5.1187885219e-06
          -0.29026567936 -1.5018820763 0.23603139818 11.425563812 -19.731616974 -0.25990331173
          -0.22704868019 -1.4882736206 0.10175966471 -0.72457122803 -12.682250023 -3.1870376915e-06
          9.0612430573 -19.470088959 -0.46367168427 -1.9785144329 -10.741511345 -6.3809770836e-06
          0.79233390093 -14.820872307 1.1208982187e-07 13.760970116 -20.013694763 1.368327321e-05
          0 0 0 -0.50550842285 -2.8917050362 0.30282637477
          9.069984436 -19.507072449 -0.22980055213 11.427274704 -19.743688583 1.1997763977e-05
          -2.2850570679 -8.513258934 0.51664507389 2.1770479679 -14.81351757 0.49495542049
          -0.22523204982 -1.4933707714 -5.980832043e-07 -0.46700808406 -2.8950080872 0.15991210938
          6.2161340714 -17.123989105 0.43768209219 -1.0470793247 -4.3802485466 -0.28944960237
          -1.5516790152 -8.1429624557 0.24996605515 2.7599565983 -17.174207687 -0.4643805027
          -1.4067583084 -6.2553339005 -0.11973477155 4.3770699501 -17.133968353 0.21476899087
          -1.5952161551 -8.33507061 0.073686182499 2.7811698914 -17.157512665 -0.2293317318
          -0.74002224207 -12.680130005 0.29391682148 9.073302269 -19.516529083 1.0288901649e-05
          -0.45452830195 -2.9033586979 -1.3123004692e-06 6.7481684685 -19.343521118 -0.40774741769
          -1.9930307865 -10.749240875 0.34432795644 0.78291702271 -14.823534966 0.25687691569
          13.758155823 -20.001298904 0.28669247031 0 0 0
          -0.69966357946 -4.3367657661 0.33804604411 6.7619538307 -19.366294861 -0.20285731554
          11.425567627 -19.731613159 0.2599273026 -0.6792820096 -4.3710408211 0.17945855856
          -1.6224951744 -8.349155426 -5.401924227e-06 2.7874908447 -17.156877518 3.3745748169e-06
          -0.2270488441 -1.4882737398 -0.101760827 9.0699882507 -19.507068634 0.22982114553
          6.7643752098 -19.370904922 8.5691763161e-06 -0.6743517518 -4.3886260986 -2.0474421945e-06
          4.3560376167 -17.136587143 0.42968007922 -0.31555369496 -15.0364151 -0.57349073887
          -0.46700841188 -2.8950080872 -0.15991471708 -1.3804485798 -6.1292881966 -0.23677989841
          -1.6148738861 -13.075032234 -0.67196410894 -0.28521573544 -15.010480881 -0.28023332357
          -0.76497972012 -12.716552734 0.60979866982 -1.578543663 -13.035001755 -0.33259743452
          -1.5952153206 -8.3350696564 -0.073696814477 2.7811737061 -17.15750885 0.22933849692
          0.76442623138 -14.840261459 0.51532393694 -2.0109713078 -10.802577972 0.68356686831
          -0.85117542744 -5.9844198227 0.3757288754 4.7682609558 -19.365200043 -0.39135915041
          13.758424759 -19.963640213 0.57501453161 0 0 0
          11.423930168 -19.692201614 0.5227484107 -0.84294527769 -6.0568490028 0.19614438713
          -0.272747159 -15.010134697 -1.8878308765e-06 -1.7652454376 -10.318984985 0.23643125594
          1.3152010441 -17.198877335 -0.50121229887 4.7883629799 -19.360782623 -0.19650708139
          -0.29026651382 -1.5018829107 -0.23603266478 -1.5651707649 -13.027669907 -5.3105018196e-06
          6.7619576454 -19.366291046 0.20287446678 -0.67928230762 -4.3710408211 -0.17946259677
          1.3347648382 -17.175958633 -0.24781215191 -1.8833743334 -10.558280945 -0.019684171304
          9.061249733 -19.470081329 0.46369233727 -0.84434401989 -6.0850844383 -2.7678479455e-06
          4.7913570404 -19.362091064 6.8087019827e-06 -0.50550961494 -2.8917064667 -0.30282893777
          1.3417668343 -17.170412064 1.491393391e-06 14.730950356 -22.308801651 -0.59076863527
          0 0 0 -1.8468240499 -10.539554596 -5.9469284679e-06
          14.725301743 -22.354763031 -0.29459786415 0 0 0
          -0.28521233797 -15.010477066 0.28022956848 12.30013752 -22.029302597 -0.52799725533
          -1.5516784191 -8.1429615021 -0.24997572601 2.7599637508 -17.174200058 0.46438726783
          -0.18418572843 -1.4086052179 0.18524354696 -1.5785403252 -13.034998894 0.33258682489
          12.296072006 -22.076171875 -0.26302391291 -0.12186717987 -1.3850154877 0.077933996916
          6.748175621 -19.343515396 0.40776464343 14.726203918 -22.3698349 1.5820680346e-05
          -0.8429454565 -6.0568490028 -0.19614984095 9.8157949448 -21.786802292 -0.46203580499
          -0.27216735482 -2.7201464176 0.27136385441 4.7883667946 -19.360778809 0.19652071595
          0 0 0 3.2465217113 -19.443082809 -0.43409529328
          -0.97782248259 -7.8916831017 0.41123408079 -0.69966471195 -4.3367671967 -0.33804991841
          -0.21486437321 -2.7029657364 0.14007781446 9.818778038 -21.832473755 -0.22891430557
          12.296123505 -22.091110229 1.4004482182e-05 1.3347685337 -17.175954819 0.24781514704
          -0.98513358831 -8.0040130615 0.21434225142 3.2678980827 -19.42209816 -0.2149002254
          -1.8833732605 -10.558279037 0.019672451541 -0.11677888036 -1.3847241402 1.0040893983e-07
          -1.1998313665 -15.351743698 -0.62340557575 9.8213567734 -21.845630646 1.2186404092e-05
          -0.31554725766 -15.036407471 0.57348692417 -0.19752839208 -2.702218771 4.0025511794e-08
          -0.98620057106 -8.048415184 -3.4692745885e-06 -1.1637952328 -15.322938919 -0.30608949065
          3.2747614384 -19.420125961 4.972651368e-06 -1.6148678064 -13.075024605 0.67195349932
          14.725304604 -22.354761124 0.29462951422 7.3237891197 -21.601703644 -0.39534816146
          -2.2960569859 -13.384513855 -0.58504492044 0 0 0
          -0.30513268709 -4.0779604912 0.34705117345 0.14217549562 -17.311027527 -0.5269908309
          -0.25846609473 -4.0807747841 0.18174231052 7.3347816467 -21.636665344 -0.19512310624
          12.296075821 -22.07616806 0.26305192709 -2.2952268124 -13.397994995 -0.31625106931
          0.16906219721 -17.292259216 -0.2624989748 -0.12186742574 -1.3850156069 -0.077933870256
          -0.85117632151 -5.9844212532 -0.3757340312 4.7682681084 -19.365192413 0.39137282968
          -1.1506602764 -15.318908691 -4.0351183088e-06 -1.7652446032 -10.318984032 -0.23644135892
          1.3152080774 -17.198869705 0.50121533871 7.3388667107 -21.644577026 1.0387063412e-05
          9.818780899 -21.832471848 0.22893868387 -2.2574176788 -13.361699104 -7.1167241913e-06
          -0.21486486495 -2.7029657364 -0.14007782936 -0.24662160873 -4.0849232674 -1.7489880122e-07
          -0.98513358831 -8.0040121078 -0.21434903145 3.2679018974 -19.422094345 0.21491017938
          0.17739789188 -17.286342621 -4.8391848395e-07 1.8748058081 -19.487426758 -0.47476303577
          -1.1077193022 -10.130066872 0.38803452253 1.8958171606 -19.465373993 -0.23493082821
          -1.1070276499 -10.275421143 0.20556591451 14.730957985 -22.308794022 0.59080028534
          0 0 0 -1.1637918949 -15.322935104 0.30608147383
          -0.28807771206 -5.6254687309 0.41416797042 5.1323285103 -21.561740875 -0.35721054673
          -0.25325906277 -5.6519637108 0.21803304553 12.300145149 -22.029294968 0.52802532911
          -0.18418617547 -1.4086060524 -0.18524365127 5.1535964012 -21.559555054 -0.17976418138
          7.3347854614 -21.63666153 0.19514387846 -2.2952239513 -13.397992134 0.31623703241
          -0.25846666098 -4.0807747841 -0.18174277246 0.16906568408 -17.292257309 0.26249802113
          1.9040564299 -19.459669113 3.0383976082e-06 -1.1298364401 -10.326727867 -4.0868176256e-06
          9.8158025742 -21.786794662 0.46206018329 -0.27216821909 -2.7201476097 -0.27136412263
          3.2465288639 -19.44307518 0.43410521746 -0.24618886411 -5.6630935669 -6.0480999764e-07
          -0.97782313824 -7.8916840553 -0.41124039888 5.1563224792 -21.561019897 8.5898118414e-06
          15.731501579 -24.752830505 -0.60961425304 0 0 0
          -1.1998250484 -15.351736069 0.62339746952 1.8958210945 -19.465370178 0.23493689299
          0 0 0 13.194047928 -24.464126587 -0.53883981705
          -1.9523826838 -15.732251167 -0.66977739334 -1.107027173 -10.275420189 -0.20557397604
          -0.032702229917 -1.2300271988 0.12296921015 -0.79013949633 -17.569768906 -0.57201546431
          15.723518372 -24.805633545 -0.30441153049 7.3237962723 -21.601696014 0.39536893368
          13.18737793 -24.517419815 -0.26909181476 0.021515663713 -1.2006192207 0.051504708827
          -2.2960519791 -13.384508133 0.58503228426 -1.9185941219 -15.70147419 -0.32988268137
          -0.30513381958 -4.0779619217 -0.34705191851 3.6870729923 -21.632743835 -0.40797153115
          -0.2532595396 -5.6519632339 -0.21803434193 0.14218217134 -17.311019897 0.52698987722
          -0.22137880325 -7.484246254 0.46249449253 5.1536002159 -21.559551239 0.17978134751
          -0.76097589731 -17.548704147 -0.2785000205 -0.19697280228 -7.526052475 0.24466718733
          3.7092998028 -21.608200073 -0.20166902244 10.602334976 -24.203660965 -0.46705105901
          15.723082542 -24.823143005 1.7988293621e-05 0.072292551398 -2.4048023224 0.22526721656
          0 0 0 10.60189724 -24.257997513 -0.23186525702
          0.1361246109 -2.3736820221 0.10817368329 13.186337471 -24.535072327 1.6033371139e-05
          0.61609643698 -19.537082672 -0.48756110668 -1.9052532911 -15.694169044 -6.3570619204e-06
          -0.75133246183 -17.546146393 -2.6398399768e-06 -1.1137800217 -12.534368515 0.55625599623
          0.02671752125 -1.1986557245 7.4792933447e-07 0.63199442625 -19.520086288 -0.24704381824
          3.7178947926 -21.605144501 6.6464394877e-06 -1.158347249 -12.761792183 0.17490062118
          -0.19718648493 -7.5460162163 -1.1565877003e-06 1.874813199 -19.487419128 0.47476905584
          10.603226662 -24.274738312 1.408875778e-05 -1.1077189445 -10.130066872 -0.38804218173
          0.14971482754 -2.3702595234 1.2975167465e-06 7.9849662781 -23.966957092 -0.38605946302
          15.723521233 -24.80562973 0.3044475019 0.63875001669 -19.513298035 1.0418832517e-06
          0.20898613334 -3.6363222599 0.33480009437 -0.28807887435 -5.6254701614 -0.41416943073
          -1.1781771183 -12.787699699 -4.4210132728e-06 5.1323366165 -21.561735153 0.35722765326
          0 0 0 7.9948396683 -24.018424988 -0.19055612385
          0.27141281962 -3.6186208725 0.16076858342 13.187381744 -24.517416 0.26912388206
          -1.9185906649 -15.701470375 0.32987004519 -0.76097249985 -17.548700333 0.27849474549
          0.021515360102 -1.2006191015 -0.051503397524 3.7093036175 -21.608196259 0.20168229938
          -0.19697315991 -7.5260515213 -0.24466954172 10.601901054 -24.257993698 0.23189343512
          7.999519825 -24.031402588 1.2170252376e-05 2.3897585869 -21.666910172 -0.44973230362
          -0.11399262398 -9.5546798706 0.52273124456 0.28883591294 -3.6254973412 1.6621529539e-06
          0.13612395525 -2.3736817837 -0.10817126185 -0.10267584026 -9.6217603683 0.26418787241
          0.63199806213 -19.520082474 0.24704585969 2.406065464 -21.641267776 -0.22415834665
          -1.1583470106 -12.761789322 -0.17490945756 5.5217032433 -23.794763565 -0.30853283405
          15.731508255 -24.752822876 0.60965019464 0 0 0
          0.36692783237 -5.0488471985 0.44371411204 5.5497264862 -23.803720474 -0.15775385499
          13.194054604 -24.46411705 0.53887182474 0.408780545 -5.0436902046 0.21747511625