<?xml version="1.0"?>
<VTKFile type="UnstructuredGrid" version="0.1" byte_order="LittleEndian" header_type="UInt32" compressor="vtkZLibDataCompressor">
  <UnstructuredGrid>
    <Piece NumberOfPoints="6405" NumberOfCells="4800">
      <PointData>
        <DataArray type="Float32" Name="DISPLACEMENT" NumberOfComponents="3" ComponentName0="X-DISPLACEMENT" ComponentName1="Y-DISPLACEMENT" ComponentName2="Z-DISPLACEMENT" format="ascii" RangeMin="0" RangeMax="294.54726912">
          0 0 0 0 0 0
          2.4724195004 -1.5569441319 -1.1233232021 0 0 0
          1.5004673004 -0.94232350588 -0.81984734535 0 0 0
          2.2719492912 -1.7320964336 -0.44140976667 1.3076202869 -1.0847332478 -0.33433315158
          0 0 0 4.4040379524 -3.0227966309 -1.1225982904
          0 0 0 4.3542299271 -3.2163350582 -0.57721567154
          3.0016710758 -2.5599946976 -0.90726780891 0 0 0
          0 0 0 2.2819068432 -1.7845414877 3.1048548976e-07
          0.96819490194 -0.65383481979 -0.5754712224 1.3032227755 -1.1078665257 1.4101432555e-07
          2.9436147213 -2.7128794193 -0.4623888433 0.82098478079 -0.78126561642 -0.23822312057
          4.3072781563 -3.2689290047 9.1388699275e-07 1.9685376883 -2.2124955654 -0.68793815374
          0 0 0 2.9061901569 -2.7609877586 5.7488261973e-07
          1.9002636671 -2.3446173668 -0.35218185186 0 0 0
          6.0869293213 -4.9018893242 -1.0205792189 0 0 0
          0.81509816647 -0.7980414629 -1.1506033815e-07 0 0 0
          0 0 0 2.2719495296 -1.7320963144 0.44141042233
          4.3784241676 -4.4724063873 -0.8560360074 6.1174664497 -5.0331764221 -0.52035331726
          0.37581029534 -0.50844079256 -0.32577872276 1.3076206446 -1.0847330093 0.33433350921
          4.403175354 -4.5943813324 -0.43596205115 0.24952858686 -0.63698863983 -0.15334646404
          1.8704835176 -2.383556366 1.3504558183e-07 4.3542304039 -3.2163345814 0.57721757889
          0 0 0 0 0 0
          0.94366258383 -2.0181779861 -0.50232100487 3.0163288116 -4.1526789665 -0.69866275787
          6.1030306816 -5.0801978111 1.7847285108e-06 2.9436154366 -2.7128787041 0.46239006519
          3.0114398003 -4.263999939 -0.35473462939 0.82098531723 -0.78126525879 0.23822300136
          4.3953404427 -4.6344742775 1.2649744576e-06 0.87362098694 -2.1341631413 -0.25563088059
          0.23426318169 -0.65307790041 -4.4950846245e-07 0 0 0
          7.5873541832 -6.9831399918 -0.88045233488 0 0 0
          5.6671748161 -6.5952563286 -0.77182233334 1.90026474 -2.3446164131 0.35218220949
          7.6420893669 -7.0686273575 -0.44643104076 2.4724202156 -1.5569438934 1.1233240366
          0 0 0 0 0 0
          0.85180425644 -2.1701376438 -4.1049105448e-07 3.0016710758 -4.2988409996 6.6730063963e-07
          -0.11185605079 -0.58593541384 -0.15696133673 5.7152533531 -6.6802191734 -0.38917070627
          1.5004682541 -0.94232290983 0.8198479414 1.7139137983 -3.9301478863 -0.54870516062
          0 0 0 6.1174674034 -5.0331754684 0.52035695314
          -0.19923251867 -0.70461469889 -0.085052520037 1.6942837238 -4.0333895683 -0.27674338222
          4.4031767845 -4.5943803787 0.43596464396 0.24952948093 -0.63698810339 0.15334571898
          4.0534687042 -6.2835726738 -0.65990793705 0.042403593659 -1.9847326279 -0.32347816229
          7.6442627907 -7.098880291 2.8684062272e-06 4.4040393829 -3.0227954388 1.1226004362
          0 0 0 0 0 0
          4.0726523399 -6.3656306267 -0.33305317163 3.0016727448 -2.5599932671 0.90726923943
          5.7234244347 -6.7093553543 2.1796088276e-06 -0.0055601205677 -2.0986447334 -0.16597725451
          0.96819591522 -0.65383398533 0.57547140121 -0.21002793312 -0.73787665367 -1.0141870916e-06
          1.6853166819 -4.0633888245 -4.1817095564e-08 3.0114414692 -4.2639989853 0.3547360301
          0.87362259626 -2.1341621876 0.25563013554 4.0747771263 -6.3920493126 1.4251024822e-06
          1.9685397148 -2.2124938965 0.68793874979 -0.015123294666 -2.1340255737 -1.1562863165e-06
          2.5289273262 -6.0519952774 -0.54914569855 7.6420907974 -7.068625927 0.44643685222
          6.0869317055 -4.9018874168 1.0205830336 0 0 0
          8.9140529633 -9.1928672791 -0.76421397924 0 0 0
          0 0 0 0.42166164517 -3.8124742508 -0.3790551722
          2.5242643356 -6.1289811134 -0.27740773559 8.9662342072 -9.2449073792 -0.38458317518
          6.8550601006 -8.8443775177 -0.69681322575 5.7152547836 -6.6802177429 0.38917511702
          -0.80445575714 -0.76900905371 -0.003537237877 0 0 0
          4.3784270287 -4.4724040031 0.85603880882 0.37581157684 -0.50843966007 0.32577839494
          0.389621526 -3.9141147137 -0.19855716825 -0.19923128188 -0.70461392403 0.085050694644
          -0.91429036856 -0.87209886312 -0.029849722981 1.6942856312 -4.0333881378 0.27674332261
          6.9015421867 -8.8996534348 -0.34869736433 4.0726542473 -6.3656287193 0.33305606246
          2.5233287811 -6.1525425911 5.6644000779e-07 8.9748678207 -9.2640762329 4.1393536776e-06
          -0.8902553916 -2.1321001053 -0.24301427603 -0.00555830542 -2.0986435413 0.16597498953
          0 0 0 5.0550312996 -8.5590524673 -0.62542378902
          0.94366514683 -2.0181758404 0.50232046843 3.0163319111 -4.1526761055 0.69866424799
          0.38285386562 -3.9421470165 -8.859936429e-07 6.9138197899 -8.9190044403 3.2985790313e-06
          -0.93070662022 -0.90816581249 -1.9835085823e-06 -0.95703679323 -2.2107284069 -0.11003898084
          5.0783643723 -8.6131744385 -0.31316515803 7.5873579979 -6.9831371307 0.88045829535
          0 0 0 0.93894052505 -5.8910646439 -0.4429230094
          5.6671786308 -6.5952534676 0.77182692289 -0.95987462997 -2.249876976 -2.3254153803e-06
          0.91093593836 -5.9610533714 -0.22701472044 5.0857515335 -8.6316709518 2.3887246243e-06
          -0.11185457557 -0.5859336853 0.15695993602 2.524266243 -6.1289796829 0.27740889788
          3.3598434925 -8.3447751999 -0.55935227871 8.9662370682 -9.2449054718 0.38459151983
          -0.67032986879 -3.9060308933 -0.34521126747 1.7139171362 -3.9301450253 0.54870522022
          0 0 0 0.38962352276 -3.9141132832 0.19855539501
          3.3615758419 -8.3921632767 -0.2807662487 -0.91428869963 -0.87209796906 0.029845936224
          -0.72054249048 -3.9631783962 -0.16092501581 6.9015440941 -8.8996515274 0.34870404005
          4.0534720421 -6.2835693359 0.65991091728 0.04240636155 -1.9847301245 0.32347601652
          10.089196205 -11.466507912 -0.6774123311 0 0 0
          0.90834397078 -5.982981205 -4.1892005243e-07 7.9405193329 -11.155005455 -0.63778299093
          10.130893707 -11.497839928 -0.33997443318 0 0 0
          -1.7326191664 -0.98355722427 0.004699582234 7.9786162376 -11.189943314 -0.31803107262
          3.3652613163 -8.4096536636 1.383970357e-06 -1.8807872534 -1.0197284222 -0.0091904914007
          -0.95703470707 -2.2107269764 0.11003439873 -0.72011315823 -3.9984092712 -2.1248638404e-06
          5.0783667564 -8.6131725311 0.31316998601 5.9995036125 -10.902567863 -0.5949921608
          -1.7894569635 -2.3792870045 -0.28579813242 10.140400887 -11.509925842 5.5875289036e-06
          0 0 0 -1.8727308512 -2.3859612942 -0.12029186636
          6.0237922668 -10.936339378 -0.29677248001 7.9900507927 -11.20274353 4.6151053539e-06
          -1.8809192181 -1.0652446747 -3.5698137708e-06 2.5289311409 -6.0519914627 0.54914695024
          1.6253670454 -8.1743946075 -0.51860660315 8.914056778 -9.1928634644 0.76422250271
          0 0 0 -0.28799942136 -5.904323101 -0.43826690316
          0.91093814373 -5.9610514641 0.22701393068 0.42166507244 -3.8124711514 0.37905344367
          6.8550643921 -8.8443746567 0.69682008028 -0.804453969 -0.76900655031 0.003533824347
          -0.31789332628 -5.9373755455 -0.21094949543 1.610665679 -8.2098722458 -0.25701981783
          3.3615782261 -8.3921613693 0.28076907992 -0.7205401063 -3.9631767273 0.16092084348
          6.0318861008 -10.948659897 3.5758234844e-06 -1.8737171888 -2.415355444 -3.980755082e-06
          4.1896314621 -10.720472336 -0.55978608131 -1.5647239685 -4.1427617073 -0.41648200154
          -0.89025223255 -2.1320972443 0.24300980568 10.130895615 -11.49783802 0.33998566866
          5.0550355911 -8.5590496063 0.62542879581 0 0 0
          1.612147212 -8.2250747681 2.8000846442e-07 -0.31292322278 -5.9625506401 -1.6961004121e-06
          4.2015762329 -10.747086525 -0.27961826324 7.9786190987 -11.189941406 0.31804037094
          -1.6197916269 -4.1309156418 -0.18996679783 -1.8807851076 -1.0197273493 0.0091835120693
          0.93894451857 -5.8910608292 0.44292238355 4.2064089775 -10.758870125 2.460361884e-06
          6.023794651 -10.936336517 0.29677969217 -1.8727283478 -2.3859598637 0.12028404325
          -1.6144548655 -4.1547350883 -3.7853701542e-06 11.148421288 -13.758813858 -0.61934196949
          0 0 0 11.17840004 -13.780451775 -0.3104480803
          3.3598480225 -8.3447713852 0.55935531855 8.9384250641 -13.47344017 -0.59223377705
          -0.67032599449 -3.9060270786 0.34520718455 0.25122579932 -8.1148748398 -0.49978962541
          -0.64047729969 -1.3986449242 0.34813153744 -0.31789064407 -5.9373736382 0.21094620228
          1.6106684208 -8.2098703384 0.25702047348 0 0 0
          8.9673500061 -13.498632431 -0.29489722848 0.24733786285 -8.1363868713 -0.2474270612
          -0.62588953972 -1.4669548273 0.10852251947 2.4292807579 -10.568134308 -0.54763352871
          -1.225335598 -6.1088681221 -0.51076000929 10.089200974 -11.466504097 0.67742371559
          0 0 0 7.9405245781 -11.15500164 0.63779240847
          11.187031746 -13.789066315 7.2055736382e-06 -1.2488131523 -6.0907058716 -0.24078248441
          2.4355676174 -10.585788727 -0.26890388131 -1.7326169014 -0.9835537672 -0.004706188105
          6.8799071312 -13.245629311 -0.56087684631 -1.6043841839 -2.6682314873 0.13107728958
          0 0 0 4.2015786171 -10.747084618 0.27962324023
          -1.6197887659 -4.1309142113 0.18995936215 8.9764404297 -13.507888794 6.115173619e-06
          0.25501221418 -8.1495695114 -9.8777456969e-07 6.9045753479 -13.269928932 -0.27912554145
          -1.7008725405 -2.772084713 -0.0016312462976 -0.63881444931 -1.4807462692 -2.2518843252e-06
          5.9995088577 -10.902564049 0.59499955177 -1.7894532681 -2.3792834282 0.28579047322
          2.4392023087 -10.594402313 1.2660701714e-06 -1.2375997305 -6.1078085899 -3.3461578823e-06
          1.6253720522 -8.1743907928 0.51860749722 6.9118571281 -13.278345108 4.9616496653e-06
          -1.6188050508 -2.755190134 -4.1072567001e-06 -0.2879948616 -5.9043188095 0.43826380372
          11.178402901 -13.780448914 0.31046253443 4.9725289345 -13.095309258 -0.53328061104
          0 0 0 -2.2457909584 -4.4453907013 -0.44730213284
          4.9930796623 -13.11279583 -0.26603800058 8.9673528671 -13.49862957 0.29490950704
          -0.6258892417 -1.4669538736 -0.10852687061 0.24734091759 -8.136384964 0.24742513895
          -2.3080837727 -4.4231753349 -0.22964268923 4.1896367073 -10.720468521 0.55979120731
          0.87176334858 -10.47500515 -0.51062059402 2.4355707169 -10.585785866 0.26890644431
          -1.5647195578 -4.1427574158 0.41647469997 -1.2488101721 -6.0907039642 0.2407759279
          -0.79578995705 -8.2776184082 -0.55286693573 0.8793438077 -10.490850449 -0.2579972446
          4.9977197647 -13.119580269 3.7391571368e-06 6.9045782089 -13.269926071 0.27913549542
          -1.7008719444 -2.7720835209 0.0016231100308 -0.79784017801 -8.2661342621 -0.26432976127
          -2.2780737877 -4.4251785278 -5.5242039707e-06 12.137684822 -16.050764084 -0.5875172019
          0 0 0 -0.46992057562 -1.6015797853 0.2824600637
          0.88650202751 -10.495632172 -5.5181978098e-08 3.1990194321 -12.990848541 -0.52031797171
          9.873257637 -15.778059006 -0.55935305357 11.14842701 -13.758810043 0.61935657263
          0 0 0 0 0 0
          -0.78300666809 -8.2798156738 -2.6207617339e-06 -2.006947279 -6.4376373291 -0.60099411011
          12.15633297 -16.07207489 -0.29389306903 3.2170937061 -13.000121117 -0.25882223248
          9.8927717209 -15.802615166 -0.27817219496 8.9384307861 -13.473435402 0.59224617481
          -0.4471014142 -1.6168251038 0.12399590015 0.25123116374 -8.1148700714 0.49978780746
          -0.64047831297 -1.3986440897 -0.34813535213 -2.0316030979 -6.386390686 -0.29318341613
          4.9930830002 -13.112793922 0.26604554057 -2.3080811501 -4.4231734276 0.22963179648
          7.7002110481 -15.564032555 -0.52486395836 2.4292864799 -10.568129539 0.54763621092
          -1.2253305912 -6.1088633537 0.51075357199 0 0 0
          -0.88744223118 -3.0459918976 0.20904003084 12.163394928 -16.080041885 8.9795703389e-06
          -0.45103693008 -1.6368232965 -1.6245477354e-06 3.2219822407 -13.004580498 2.4336773095e-06
          7.7221179008 -15.587478638 -0.26047191024 6.8799128532 -13.245624542 0.5608869791
          9.8992376328 -15.810878754 7.7798849816e-06 -1.6043845415 -2.6682300568 -0.1310839653
          -2.0191259384 -6.3876843452 -5.2702948778e-06 -0.92755621672 -3.1106066704 0.1112472713
          0.87934696674 -10.490848541 0.25799712539 -0.79783695936 -8.2661314011 0.26432457566
          -0.302303195 -10.602771759 -0.56674140692 7.7279419899 -15.594145775 6.5196722971e-06
          -0.93518507481 -3.1355440617 -3.0797584714e-06 -0.29446917772 -10.589631081 -0.2725943327
          5.6714811325 -15.44455719 -0.49223151803 0 0 0
          -1.2701250315 -4.5362915993 0.10188502073 12.156335831 -16.072072983 0.29391106963
          -0.44710117579 -1.6168248653 -0.12399888784 3.2170968056 -13.000118256 0.25882712007
          5.694038868 -15.458806992 -0.24519449472 4.9725346565 -13.095304489 0.53328824043
          9.8927745819 -15.802612305 0.27818778157 1.5060200691 -12.917384148 -0.51253294945
          -1.6162574291 -8.6166820526 -0.65351706743 -2.2457871437 -4.4453859329 0.44729182124
          -1.3385639191 -4.6697635651 0.01995283924 -2.0315997601 -6.3863887787 0.29317298532
          1.5152620077 -12.917826653 -0.25737252831 -1.6205413342 -8.5666866302 -0.31444254518
          -0.27880448103 -10.600743294 -1.7291903305e-06 0.87176913023 -10.475000381 0.51062053442
          7.7221207619 -15.58747673 0.26048499346 -0.79578441381 -8.2776136398 0.55286180973
          5.6984009743 -15.462898254 5.1888414418e-06 -0.92755562067 -3.1106059551 -0.11125321686
          -1.3542602062 -4.6787838936 -4.1181538109e-06 1.5220894814 -12.919826508 9.9729049907e-07
          -1.6041606665 -8.5705575943 -4.5974597924e-06 -1.621214509 -6.3355441093 0.022603645921
          3.8423829079 -15.405158043 -0.48330283165 12.137691498 -16.050758362 0.58753532171
          0 0 0 -0.29446578026 -10.589629173 0.27259093523
          -0.46992135048 -1.601580143 -0.2824627459 -1.7120519876 -6.5015335083 -0.067819304764
          3.1990253925 -12.990842819 0.5203229785 9.8732643127 -15.778054237 0.55936872959
          3.8629512787 -15.404996872 -0.24205316603 13.100336075 -18.354301453 -0.57727050781
          0 0 0 -2.0069420338 -6.4376325607 0.6009837985
          13.108718872 -18.381217957 -0.28808522224 -0.31751590967 -1.6389414072 0.23235462606
          10.773094177 -18.082267761 -0.53987455368 5.6940422058 -15.458804131 0.24520492554
          0 0 0 -1.3385630846 -4.6697621346 -0.019960977137
          10.78316021 -18.111837387 -0.26829004288 -0.27348613739 -1.6343772411 0.10049441457
          1.5152653456 -12.917824745 0.25737458467 -1.6205378771 -8.5666847229 0.31443342566
          7.7002177238 -15.564027786 0.52487713099 -1.7088989019 -6.500667572 -4.6728437155e-06
          3.8680412769 -15.408124924 3.7860586417e-06 -0.88744235039 -3.0459918976 -0.20904535055
          0.23267865181 -13.011694908 -0.57009875774 -0.5875928998 -3.137114048 0.25340116024
          8.4734477997 -17.866247177 -0.49461480975 -1.1708658934 -10.930148125 -0.67526054382
          13.113666534 -18.390403748 1.0887780263e-05 0 0 0
          0.24944007397 -12.990951538 -0.27820304036 10.78710556 -18.120925903 9.5857376436e-06
          -0.27847281098 -1.6450510025 -8.7611613253e-07 8.488945961 -17.893882751 -0.24522686005
          -0.5883230567 -3.1654293537 0.13440212607 -1.1573415995 -10.879255295 -0.32501086593
          -0.30229705572 -10.602766037 0.56673812866 0.26383024454 -12.995718956 -6.5115381176e-07
          -2.0539107323 -8.7967176437 -0.36067476869 -1.7120507956 -6.5015320778 0.067810080945
          2.1445455551 -15.388167381 -0.51785480976 8.4932518005 -17.900634766 8.2374708654e-06
          5.6714878082 -15.444551468 0.49224209785 3.862954855 -15.404994011 0.24206081033
          -1.1388832331 -10.882706642 -3.7175575471e-06 -0.58334851265 -3.1823785305 -1.704861802e-06
          -1.2701244354 -4.5362911224 -0.10189196467 13.108721733 -18.381216049 0.28810703754
          6.2800765038 -17.760000229 -0.45283707976 -2.1177387238 -8.8803949356 -0.25034710765
          -0.86705541611 -4.6823859215 0.22782374918 2.1603367329 -15.373351097 -0.25388163328
          1.5060263872 -12.917379379 0.51253521442 -1.6162515879 -8.6166772842 0.65350806713
          0 0 0 -0.89274597168 -4.7594013214 0.12247701734
          10.783164024 -18.11183548 0.26830923557 -0.27348601818 -1.6343772411 -0.1004960537
          6.2988409996 -17.774991989 -0.22557324171 -2.037276268 -8.8265419006 -5.5465670812e-06
          2.1671404839 -15.374026299 2.3116967895e-06 0.24944368005 -12.990949631 0.27820181847
          6.3022665977 -17.778371811 6.8396839197e-06 -0.89726728201 -4.7897877693 -2.4051607852e-06
          8.4889497757 -17.893880844 0.24524337053 -0.58832287788 -3.1654293537 -0.13440541923
          -1.157337904 -10.879252434 0.32500353456 -1.6212130785 -6.3355431557 -0.022611733526
          3.8423895836 -15.405153275 0.48331063986 4.3690676689 -17.780441284 -0.44810581207
          13.100342751 -18.354297638 0.57729238272 0 0 0
          -1.1567782164 -6.4974417686 0.18214483559 -0.31751635671 -1.6389422417 -0.23235611618
          10.773100853 -18.082262039 0.53989380598 -2.117736578 -8.8803930283 0.2503362596
          2.160340786 -15.373348236 0.25388631225 4.3899817467 -17.774642944 -0.2246055752
          -0.70346677303 -13.310347557 -0.66778963804 -1.1852158308 -6.6160554886 0.094792492688
          -0.89274561405 -4.7594008446 -0.12248161435 6.2988448143 -17.774990082 0.22558696568
          -0.67421007156 -13.264738083 -0.32342678308 0.78741669655 -15.453107834 -0.55918496847
          -1.9381101131 -11.333095551 -0.74578291178 14.065966606 -20.699327469 -0.58222693205
          0 0 0 11.663250923 -20.422229767 -0.5341643095
          0.23268528283 -13.011689186 0.57009762526 -0.58759325743 -3.1371154785 -0.25340405107
          8.4734544754 -17.866241455 0.49463140965 -1.9177229404 -11.278625488 -0.37872061133
          0.81128102541 -15.42924881 -0.27590343356 -1.1708594561 -10.930142403 0.67525327206
          14.066151619 -20.733753204 -0.2902084291 0 0 0
          -1.1939151287 -6.651034832 -2.9657478535e-06 4.3945074081 -17.776849747 5.3686676438e-06
          -0.22000600398 -1.603320837 0.18352328241 11.664954185 -20.458456039 -0.26564750075
          -0.17042087018 -1.5893161297 0.078857347369 -0.6563783288 -13.265595436 -2.5933582037e-06
          9.2334213257 -20.189710617 -0.47935515642 -1.9015544653 -11.266001701 -5.7812835621e-06
          0.8227788806 -15.426692009 6.8375470619e-07 14.06879425 -20.745029449 1.2896777662e-05
          0 0 0 -0.37596878409 -3.1014287472 0.23701219261
          9.2413568497 -20.224054337 -0.23770652711 11.666672707 -20.469491959 1.1497202649e-05
          -2.0539078712 -8.7967157364 0.36066624522 2.1445527077 -15.388161659 0.51785969734
          -0.168827191 -1.5935968161 -1.1202325112e-07 -0.34531396627 -3.1031668186 0.12511354685
          6.2800831795 -17.759994507 0.45285090804 -0.86705541611 -4.682387352 -0.2278278172
          -1.3279147148 -8.6145305634 0.17518161237 2.757856369 -17.833677292 -0.49460861087
          -1.1852151155 -6.6160550117 -0.094798184931 4.3899855614 -17.77463913 0.22461636364
          -1.3632661104 -8.7844686508 0.056892048568 2.7806274891 -17.813461304 -0.24290393293
          -0.67420619726 -13.264735222 0.32342168689 9.2449178696 -20.232753754 1.007276569e-05
          -0.33570736647 -3.1111557484 -2.238046477e-07 6.8410038948 -20.046764374 -0.42669826746
          -1.9177188873 -11.278622627 0.37870907784 0.81128489971 -15.429245949 0.27590483427
          14.066155434 -20.733751297 0.29023423791 0 0 0
          -0.51129108667 -4.6534657478 0.26578938961 6.8540964127 -20.067951202 -0.21244102716
          11.664958 -20.458452225 0.26567050815 -0.49470406771 -4.6850233078 0.14122389257
          -1.3964021206 -8.8090438843 -3.4489614791e-06 2.7886884212 -17.812894821 3.8278158172e-06
          -0.17042085528 -1.5893163681 -0.078857555985 9.2413597107 -20.224050522 0.23772668839
          6.857416153 -20.072048187 8.6273412307e-06 -0.49035030603 -4.7020373344 -3.4041059394e-07
          4.3690748215 -17.780435562 0.44811671972 -0.23280006647 -15.703177452 -0.62999778986
          -0.34531393647 -3.103167057 -0.12511396408 -1.1567777395 -6.4974431992 -0.18214981258
          -1.5144398212 -13.704566002 -0.73495543003 -0.19647832215 -15.669754028 -0.30627954006
          -0.70345979929 -13.310340881 0.66778469086 -1.4732966423 -13.658336639 -0.36644250154
          -1.3632649183 -8.7844676971 -0.056898746639 2.7806315422 -17.813457489 0.24291163683
          0.78742396832 -15.453102112 0.55918639898 -1.9381033182 -11.333089828 0.74577152729
          -0.61495500803 -6.4060292244 0.29633319378 4.7869200706 -20.062705994 -0.411927104
          14.065973282 -20.699321747 0.58225280046 0 0 0
          11.663258553 -20.422224045 0.53418731689 -0.60644298792 -6.4727344513 0.15519203246
          -0.18314309418 -15.667266846 -1.2106629583e-06 -1.4993470907 -10.876970291 0.20270752907
          1.3511675596 -17.887561798 -0.53172683716 4.8076343536 -20.056203842 -0.20749559999
          -0.22000607848 -1.6033219099 -0.18352347612 -1.458753705 -13.648561478 -4.6493487389e-06
          6.8541002274 -20.067947388 0.21245828271 -0.4947040081 -4.6850237846 -0.14122454822
          1.3749120235 -17.862178802 -0.26452690363 -1.6110811234 -11.114498138 -0.027600130066
          9.2334280014 -20.189704895 0.4793753624 -0.60846841335 -6.5010948181 -4.7764558531e-07
          4.8120303154 -20.057573318 7.1116523941e-06 -0.3759688437 -3.1014304161 -0.23701258004
          1.3844280243 -17.856409073 2.1428056698e-06 15.049339294 -23.114587784 -0.5955247283
          0 0 0 -1.5907174349 -11.116710663 -3.9520173232e-06
          15.044290543 -23.155725479 -0.29699993134 0 0 0
          -0.19647426903 -15.669751167 0.30627718568 12.559381485 -22.830818176 -0.53932094574
          -1.3279132843 -8.6145305634 -0.17518761754 2.7578639984 -17.83367157 0.49461638927
          -0.11531451344 -1.5129773617 0.13440768421 -1.4732925892 -13.658333778 0.36643323302
          12.555495262 -22.87288475 -0.26874738932 -0.066080927849 -1.4924169779 0.056190613657
          6.8410110474 -20.046758652 0.42671558261 15.044935226 -23.169216156 1.4964950424e-05
          -0.6064427495 -6.4727344513 -0.15519295633 10.0206213 -22.579341888 -0.48010486364
          -0.14147160947 -2.9357740879 0.20770201087 4.8076381683 -20.056201935 0.2075098455
          0 0 0 3.2651495934 -20.153551102 -0.46213755012
          -0.69544667006 -8.4146375656 0.3311727643 -0.51129108667 -4.653468132 -0.26578995585
          -0.09206455946 -2.9238162041 0.10631683469 10.022388458 -22.620792389 -0.23802435398
          12.555513382 -22.886310577 1.3467617464e-05 1.3749161959 -17.862176895 0.26453128457
          -0.70086586475 -8.5221843719 0.17151410878 3.2890338898 -20.130163193 -0.2285271138
          -1.6110794544 -11.114496231 0.027592262253 -0.061395935714 -1.4933097363 6.6464707515e-07
          -1.0740402937 -16.061443329 -0.6817445755 10.024790764 -22.632751465 1.196467565e-05
          -0.23279249668 -15.70317173 0.62999552488 -0.077220357955 -2.9248008728 1.2897941133e-06
          -0.70115756989 -8.5670623779 -6.4718068415e-07 -1.0315186977 -16.028728485 -0.33559021354
          3.2974932194 -20.128173828 5.5085920394e-06 -1.5144323111 -13.70456028 0.73494625092
          15.044293404 -23.155721664 0.29702985287 7.4649529457 -22.376350403 -0.41887801886
          -2.0573737621 -13.960678101 -0.51531982422 0 0 0
          -0.11688212305 -4.4117875099 0.27341002226 0.2407450676 -18.051927567 -0.57071119547
          -0.073833800852 -4.4211268425 0.14277178049 7.474386692 -22.409275055 -0.20676589012
          12.555498123 -22.872880936 0.26877433062 -2.0789549351 -14.020665169 -0.30775099993
          0.27121189237 -18.028087616 -0.28365507722 -0.066081009805 -1.4924170971 -0.056189373136
          -0.61495482922 -6.4060316086 -0.29633399844 4.7869277 -20.062700272 0.41194143891
          -1.0183269978 -16.021232605 -3.2273806028e-06 -1.4993453026 -10.876969337 -0.20271401107
          1.3511754274 -17.887556076 0.53173136711 7.478946209 -22.416713715 1.0467870197e-05
          10.022391319 -22.620790482 0.23804828525 -2.0145616531 -13.966293335 -5.7051584008e-06
          -0.092064708471 -2.9238162041 -0.10631434619 -0.062499202788 -4.4282026291 1.8040650502e-06
          -0.70086550713 -8.5221834183 -0.17151536047 3.2890379429 -20.130159378 0.22853817046
          0.28163027763 -18.022527695 3.547110623e-07 1.901183486 -20.215471268 -0.50615221262
          -0.779717803 -10.755200386 0.31075140834 1.9251630306 -20.190645218 -0.25070860982
          -0.77659267187 -10.899472237 0.16812692583 15.049346924 -23.114582062 0.59555464983
          0 0 0 -1.0315144062 -16.02872467 0.33558380604
          -0.041734009981 -6.0742115974 0.3328627646 5.1770815849 -22.315078735 -0.38153970242
          -0.0061133545823 -6.1098251343 0.17514565587 12.559389114 -22.830812454 0.53934788704
          -0.11531414837 -1.5129783154 -0.13440656662 5.1980676651 -22.312932968 -0.19114144146
          7.4743900299 -22.40927124 0.20678682625 -2.0789518356 -14.020662308 0.30773967505
          -0.073833987117 -4.4211268425 -0.14276830852 0.2712161839 -18.028083801 0.28365582228
          1.9352140427 -20.184858322 3.8494845285e-06 -0.79266524315 -10.953205109 -8.6602574356e-07
          10.020628929 -22.579336166 0.48012879491 -0.14147132635 -2.9357755184 -0.2076998055
          3.2651574612 -20.15354538 0.46214869618 0.0017783304211 -6.124560833 2.1382554678e-06
          -0.69544631243 -8.414639473 -0.33117380738 5.2016191483 -22.31420517 8.9587565526e-06
          16.055412292 -25.618444443 -0.61153918505 0 0 0
          -1.0740324259 -16.061437607 0.6817381978 1.9251676798 -20.190643311 0.25071632862
          0 0 0 13.47129631 -25.326955795 -0.54954463243
          -1.7777942419 -16.477800369 -0.72876566648 -0.77659201622 -10.899470329 -0.16812862456
          0.026038879529 -1.3394333124 0.076414726675 -0.63940000534 -18.349029541 -0.61915791035
          16.048145294 -25.664796829 -0.30545693636 7.4649600983 -22.376342773 0.41889896989
          13.464957237 -25.373806 -0.27449715137 0.071340963244 -1.3169378042 0.03151421994
          -2.0573687553 -13.960674286 0.51531076431 -1.7380496264 -16.444992065 -0.3607275188
          -0.11688201874 -4.4117889404 -0.27340701222 3.7237763405 -22.402311325 -0.43259361386
          -0.0061135757715 -6.1098246574 -0.17514157295 0.24075314403 -18.051921844 0.57071202993
          0.081705793738 -8.0466814041 0.38477152586 5.1980719566 -22.312929153 0.19115936756
          -0.60514605045 -18.324012756 -0.30385890603 0.10988432169 -8.1000452042 0.2036266923
          3.7488479614 -22.377088547 -0.21436484158 10.838970184 -25.059818268 -0.4867477715
          16.047513962 -25.680210114 1.7048969312e-05 0.18696238101 -2.6183168888 0.17352388799
          0 0 0 10.837304115 -25.10790062 -0.24190832675
          0.24622423947 -2.6002004147 0.082131907344 13.463882446 -25.389400482 1.5450243154e-05
          0.71526110172 -20.308635712 -0.52837914228 -1.7225558758 -16.435529709 -5.2384352784e-06
          -0.59370929003 -18.320062637 -1.5583616459e-06 -0.74527662992 -13.255384445 0.45888280869
          0.0766505301 -1.3185130358 1.4396511006e-06 0.73736435175 -20.288593292 -0.26599022746
          3.7587797642 -22.37468338 7.3264964158e-06 -0.77326315641 -13.476325989 0.14104795456
          0.1123899892 -8.1243400574 2.3731156489e-06 1.9011923075 -20.215465546 0.50616008043
          10.838240623 -25.122821808 1.3862700143e-05 -0.77971678972 -10.75520134 -0.31075295806
          0.25778314471 -2.5982105732 2.7016458262e-06 8.1785945892 -24.810409546 -0.41476505995
          16.048149109 -25.664794922 0.30549103022 0.74612236023 -20.282052994 2.1398459467e-06
          0.38749420643 -3.9916443825 0.27450588346 -0.041734084487 -6.0742135048 -0.33285915852
          -0.78698307276 -13.512304306 -7.0251132911e-07 5.1770892143 -22.315073013 0.38155764341
          0 0 0 8.1853876114 -24.857408524 -0.20494246483
          0.44953376055 -3.9897310734 0.13497062027 13.464961052 -25.373802185 0.27452805638
          -1.7380453348 -16.444990158 0.36071702838 -0.60514169931 -18.324010849 0.30385577679
          0.071340754628 -1.3169375658 -0.031511601061 3.748852253 -22.377086639 0.21437953413
          0.10988400131 -8.1000442505 -0.20362210274 10.83730793 -25.107896805 0.2419360429
          8.1895647049 -24.869083405 1.2300682101e-05 2.4376854897 -22.453159332 -0.47886684537
          0.24144160748 -10.212798119 0.43977418542 0.46790635586 -3.9970135689 3.7802956285e-06
          0.24622383714 -2.6001999378 -0.082126714289 0.26077514887 -10.298766136 0.23090201616
          0.73736894131 -20.288591385 0.26599448919 2.4578619003 -22.427125931 -0.23834015429
          -0.77326261997 -13.476323128 -0.14104953408 5.6215996742 -24.604106903 -0.33370664716
          16.055419922 -25.618436813 0.6115732193 0 0 0
          0.58599632978 -5.5251693726 0.3810275197 5.6462016106 -24.616874695 -0.17094129324