<?xml version="1.0"?>
<VTKFile type="UnstructuredGrid" version="0.1" byte_order="LittleEndian" header_type="UInt32" compressor="vtkZLibDataCompressor">
  <UnstructuredGrid>
    <Piece NumberOfPoints="6405" NumberOfCells="4800">
      <PointData>
        <DataArray type="Float32" Name="DISPLACEMENT" NumberOfComponents="3" ComponentName0="X-DISPLACEMENT" ComponentName1="Y-DISPLACEMENT" ComponentName2="Z-DISPLACEMENT" format="ascii" RangeMin="0" RangeMax="320.67577302">
          0 0 0 0 0 0
          2.5743768215 -1.555870533 -1.1743211746 0 0 0
          1.5460752249 -0.9048885107 -0.837020576 0 0 0
          2.3644604683 -1.7503246069 -0.46163576841 1.3466973305 -1.0670543909 -0.34101691842
          0 0 0 4.6258749962 -3.0966393948 -1.1852494478
          0 0 0 4.5695610046 -3.3139574528 -0.60696017742
          3.1039428711 -2.6035046577 -0.93429392576 0 0 0
          0 0 0 2.3755543232 -1.8074423075 -2.1708789433e-08
          0.92852187157 -0.59725010395 -0.55211752653 1.342320919 -1.0933721066 1.492409929e-08
          3.0385909081 -2.7782781124 -0.47578504682 0.78065872192 -0.74725055695 -0.22904829681
          4.5202226639 -3.3725328445 8.6507149888e-08 1.9152431488 -2.2335028648 -0.67923796177
          0 0 0 2.999540329 -2.832044363 1.4098672807e-07
          1.8366174698 -2.3868358135 -0.3484621644 0 0 0
          6.4204392433 -5.1384210587 -1.0836926699 0 0 0
          0.77491861582 -0.76727312803 2.3240446012e-08 0 0 0
          0 0 0 2.3644604683 -1.7503247261 0.46163573861
          4.5401902199 -4.685945034 -0.89385521412 6.4475069046 -5.2882409096 -0.55151021481
          0.24678571522 -0.46610870957 -0.25344645977 1.3466974497 -1.0670545101 0.34101697803
          4.5596518517 -4.8244595528 -0.4550730288 0.11984889209 -0.62400001287 -0.12556494772
          1.8071622849 -2.4312598705 1.6467134856e-07 4.5695614815 -3.3139574528 0.60696035624
          0 0 0 0 0 0
          0.6970744729 -2.0324134827 -0.45775434375 2.984238863 -4.3525590897 -0.71842741966
          6.4305963516 -5.340886116 2.9511443245e-07 3.0385911465 -2.7782783508 0.47578534484
          2.9697885513 -4.4768176079 -0.36451795697 0.78065884113 -0.74725055695 0.22904837132
          4.5504221916 -4.8698010445 3.6033267747e-07 0.60879522562 -2.1690194607 -0.23759067059
          0.10175949335 -0.64601707458 1.7136224884e-08 0 0 0
          8.0170326233 -7.4255013466 -0.93952202797 0 0 0
          5.8893480301 -7.0180792809 -0.81515771151 1.8366178274 -2.3868358135 0.34846252203
          8.0710754395 -7.524040699 -0.47638717294 2.5743770599 -1.5558707714 1.1743211746
          0 0 0 0 0 0
          0.58743798733 -2.2115068436 1.6733069685e-07 2.9601640701 -4.5170106888 3.9761690118e-07
          -0.30386224389 -0.59029358625 -0.058101207018 5.9360218048 -7.1146359444 -0.41107213497
          1.5460754633 -0.90488862991 0.83702075481 1.441871047 -4.1183719635 -0.56512928009
          0 0 0 6.4475073814 -5.2882409096 0.55151081085
          -0.40630024672 -0.73434895277 -0.042769193649 1.4102135897 -4.2282009125 -0.28338342905
          4.5596528053 -4.8244595528 0.45507377386 0.11984910071 -0.62399995327 0.12556502223
          4.0671081543 -6.6974759102 -0.69386404753 -0.27073663473 -2.0403161049 -0.30086356401
          8.0717430115 -7.5587544441 5.9265164509e-07 4.6258759499 -3.0966396332 1.1852496862
          0 0 0 0 0 0
          4.0844960213 -6.7890200615 -0.34948512912 3.1039433479 -2.6035048962 0.93429434299
          5.9434108734 -7.1481413841 6.6222622763e-07 -0.33943861723 -2.1583786011 -0.1505573988
          0.92852222919 -0.59725016356 0.55211770535 -0.42204803228 -0.77826589346 -1.7285135101e-08
          1.4008475542 -4.2633070946 4.1610010726e-07 2.9697892666 -4.4768176079 0.36451879144
          0.60879564285 -2.1690194607 0.23759104311 4.08604002 -6.8201241493 7.0939773877e-07
          1.9152439833 -2.2335031033 0.67923843861 -0.34513926506 -2.2033808231 1.4792038883e-07
          2.323867321 -6.4536781311 -0.57886952162 8.0710763931 -7.5240411758 0.47638836503
          6.420440197 -5.1384215355 1.0836933851 0 0 0
          9.4326248169 -9.8590717316 -0.81914383173 0 0 0
          0 0 0 0.087516762316 -4.0147609711 -0.40006938577
          2.3227965832 -6.5399122238 -0.28909987211 9.4859075546 -9.9215049744 -0.4123314023
          7.1429696083 -9.4867429733 -0.73825073242 5.9360227585 -7.1146359444 0.41107347608
          -1.0973280668 -0.81606507301 0.10760530829 0 0 0
          4.5401911736 -4.685945034 0.89385604858 0.24678614736 -0.46610867977 0.25344663858
          0.057993672788 -4.1190676689 -0.20513637364 -0.40629994869 -0.73434889317 0.0427692011
          -1.2384184599 -0.93325221539 0.009923774749 1.4102143049 -4.2282013893 0.28338429332
          7.1906385422 -9.5520982742 -0.36958912015 4.0844964981 -6.7890200615 0.34948655963
          2.3215839863 -6.5670933723 7.4058840482e-07 9.494052887 -9.9441614151 9.6812595984e-07
          -1.3294354677 -2.2110459805 -0.22361622751 -0.33943805099 -2.1583786011 0.15055774152
          0 0 0 5.1201901436 -9.1802043915 -0.65277010202
          0.69707530737 -2.0324134827 0.45775485039 2.9842398167 -4.3525595665 0.71842831373
          0.053593866527 -4.1507134438 4.2301178382e-07 7.2026844025 -9.5747451782 1.0367525647e-06
          -1.2628524303 -0.97798848152 -8.7662250792e-08 -1.4069626331 -2.2880012989 -0.10314864665
          5.144859314 -9.2446565628 -0.32701262832 8.017033577 -7.4255013466 0.93952327967
          0 0 0 0.61707139015 -6.2937278748 -0.43967202306
          5.8893489838 -7.0180797577 0.81515914202 -1.4083380699 -2.3297700882 7.5004848554e-08
          0.59918963909 -6.3790407181 -0.22674033046 5.1512794495 -9.2660884857 1.0822975582e-06
          -0.30386167765 -0.59029346704 0.058101378381 2.3227972984 -6.5399122238 0.28910139203
          3.2013680935 -8.9432468414 -0.56715136766 9.4859085083 -9.921505928 0.41233333945
          -1.1562973261 -4.1226196289 -0.34283599257 1.4418723583 -4.1183719635 0.56513023376
          0 0 0 0.057994380593 -4.1190676689 0.20513723791
          3.2060623169 -9.003780365 -0.28470781446 -1.2384179831 -0.93325209618 -0.0099239107221
          -1.2042909861 -4.1877241135 -0.15881216526 7.1906394958 -9.5520982742 0.36959120631
          4.0671095848 -6.6974759102 0.69386553764 -0.27073559165 -2.0403161049 0.30086401105
          10.696281433 -12.376148224 -0.72833317518 0 0 0
          0.59802520275 -6.4032640457 7.5404011568e-07 8.2986354828 -12.039132118 -0.67595493793
          10.739699364 -12.416266441 -0.36521342397 0 0 0
          -2.1734735966 -1.0534695387 0.14487782121 8.3380203247 -12.08278656 -0.33706399798
          3.2091116905 -9.0230979919 1.1100854636e-06 -2.34821105 -1.1097661257 0.036031384021
          -1.4069620371 -2.2880012989 0.10314883292 -1.2040140629 -4.223279953 3.610100805e-07
          5.1448597908 -9.2446565628 0.32701483369 6.117702961 -11.761594772 -0.61828708649
          -2.4059839249 -2.4628224373 -0.26511833072 10.749088287 -12.430994987 1.4140840676e-06
          0 0 0 -2.5046873093 -2.4671568871 -0.11056341976
          6.1408429146 -11.804076195 -0.30846366286 8.3495693207 -12.097963333 1.4762749743e-06
          -2.3255910873 -1.1736829281 -2.4616170435e-07 2.3238687515 -6.4536781311 0.57887107134
          1.2466279268 -8.7686862946 -0.48723754287 9.4326257706 -9.8590717316 0.81914585829
          0 0 0 -0.79441106319 -6.3419175148 -0.42215043306
          0.59919047356 -6.3790411949 0.22674185038 0.087518118322 -4.0147609711 0.40007030964
          7.1429710388 -9.486743927 0.73825287819 -1.0973272324 -0.81606477499 -0.10760527849
          -0.83304470778 -6.3853960037 -0.19935266674 1.2297482491 -8.8221330643 -0.24704585969
          3.2060632706 -9.003780365 0.28471004963 -1.2042901516 -4.1877241135 0.15881291032
          6.148499012 -11.818263054 1.5113334939e-06 -2.5033004284 -2.4981837273 -9.8538599502e-08
          4.0520405769 -11.555829048 -0.56614345312 -2.1963596344 -4.3998794556 -0.42343312502
          -1.3294341564 -2.2110459805 0.22361649573 10.739700317 -12.416266441 0.36521628499
          5.1201915741 -9.1802043915 0.6527723074 0 0 0
          1.2312223911 -8.8401727676 1.1153950936e-06 -0.82879590988 -6.4153428078 6.9470274866e-07
          4.0585579872 -11.590221405 -0.2836356163 8.3380212784 -12.08278656 0.33706697822
          -2.2701973915 -4.3849644661 -0.18369622529 -2.3482105732 -1.1097660065 -0.036031827331
          0.61707299948 -6.2937278748 0.43967357278 4.0634493828 -11.603481293 1.5298494418e-06
          6.1408438683 -11.804076195 0.3084667325 -2.5046863556 -2.4671568871 0.1105632782
          -2.2650156021 -4.4109783173 1.9648669536e-07 11.839547157 -14.937384605 -0.66491037607
          0 0 0 11.871494293 -14.965017319 -0.33282595873
          3.2013697624 -8.9432468414 0.56715369225 9.3635902405 -14.629943848 -0.62892818451
          -1.1562957764 -4.1226196289 0.34283679724 -0.28740358353 -8.7618646622 -0.50434613228
          -0.61515760422 -1.6272348166 0.31422421336 -0.8330437541 -6.3853960037 0.19935408235
          1.2297490835 -8.8221330643 0.24704812467 0 0 0
          9.3934850693 -14.660605431 -0.31299105287 -0.31179693341 -8.7786769867 -0.24327333272
          -0.60077118874 -1.6697704792 0.1137162745 1.9860844612 -11.394348145 -0.54533571005
          -1.8306456804 -6.6036095619 -0.54628425837 10.696282387 -12.376148224 0.72833603621
          0 0 0 8.2986373901 -12.039133072 0.67595791817
          11.879889488 -14.975291252 1.9255728603e-06 -1.8838742971 -6.5642213821 -0.2469240427
          1.9774839878 -11.414525032 -0.2699316144 -2.1734726429 -1.0534691811 -0.14487802982
          7.0495634079 -14.384961128 -0.58912456036 -1.5137319565 -2.9095551968 0.1386038512
          0 0 0 4.0585589409 -11.590221405 0.28363868594
          -2.2701964378 -4.3849644661 0.18369667232 9.402765274 -14.671216965 1.9765068373e-06
          -0.30266016722 -8.7994480133 1.0717632222e-06 7.0712351799 -14.413002968 -0.29291039705
          -1.6145787239 -2.9823143482 0.030435139313 -0.62434142828 -1.691118598 -7.571522076e-08
          6.1177048683 -11.761595726 0.61829018593 -2.4059824944 -2.4628224373 0.26511830091
          1.980733633 -11.425749779 1.5402713416e-06 -1.8718463182 -6.5851697922 5.5143823374e-07
          1.246629715 -8.7686862946 0.48723989725 7.0781354904 -14.422369957 2.0021670935e-06
          -1.5906481743 -2.9840967655 7.7063589288e-08 -0.79440927505 -6.3419175148 0.42215192318
          11.871495247 -14.965017319 0.33282983303 4.8685708046 -14.222994804 -0.55893999338
          0 0 0 -2.4496872425 -4.7962107658 -0.25128298998
          4.8820800781 -14.239883423 -0.27905362844 9.3934860229 -14.660605431 0.31299501657
          -0.60077100992 -1.66977036 -0.11371637881 -0.31179583073 -8.7786769867 0.24327553809
          -2.5411717892 -4.8544306755 -0.17049531639 4.0520424843 -11.555829048 0.56614667177
          0.34380039573 -11.352337837 -0.56805223227 1.9774851799 -11.414525032 0.26993474364
          -2.1963577271 -4.3998789787 0.42343366146 -1.883873105 -6.5642213821 0.24692520499
          -1.3490622044 -9.0079460144 -0.64264935255 0.34035441279 -11.349477768 -0.27895274758
          4.8869791031 -14.248332024 2.016840881e-06 7.0712361336 -14.413002968 0.29291442037
          -1.6145783663 -2.9823143482 -0.03043496795 -1.3714467287 -8.9563980103 -0.29994860291
          -2.4441606998 -4.8417344093 2.1369375247e-07 12.901342392 -17.517850876 -0.62586826086
          0 0 0 -0.39844414592 -1.8526531458 0.22658917308
          0.35223650932 -11.358654976 1.5336011074e-06 2.7895131111 -14.108608246 -0.56675046682
          10.360009193 -17.226551056 -0.59448987246 11.839549065 -14.937385559 0.66491425037
          0 0 0 0 0 0
          -1.3531601429 -8.9710235596 9.7885038031e-07 -2.5847437382 -7.0049958229 -0.68473255634
          12.922337532 -17.54123497 -0.31281080842 2.7986240387 -14.109666824 -0.27880361676
          10.38083744 -17.25252533 -0.29556205869 9.3635921478 -14.629943848 0.62893217802
          -0.39036133885 -1.845241785 0.10021218657 -0.28740152717 -8.7618646622 0.50434839725
          -0.61515718699 -1.6272346973 -0.31422409415 -2.6373302937 -6.9200820923 -0.33583849669
          4.8820815086 -14.239883423 0.27905768156 -2.5411713123 -4.8544306755 0.17049579322
          7.919989109 -16.996980667 -0.55807244778 1.986086607 -11.394348145 0.5453389883
          -1.8306435347 -6.6036095619 0.54628551006 0 0 0
          -0.84409916401 -3.5000743866 0.13812592626 12.929078102 -17.54964447 2.4920318538e-06
          -0.39621657133 -1.8631700277 6.5569224716e-08 2.8038432598 -14.115620613 2.0373136067e-06
          7.9397554398 -17.01984024 -0.27697479725 7.0495653152 -14.384961128 0.58912867308
          10.387513161 -17.260957718 2.5261113024e-06 -1.5137313604 -2.9095551968 -0.13860358298
          -2.6199493408 -6.9149537086 4.5126051873e-07 -0.89673626423 -3.5290193558 0.081841871142
          0.3403557241 -11.349477768 0.27895587683 -1.3714455366 -8.9563980103 0.29995062947
          -0.8028216958 -11.583109856 -0.69096159935 7.9451870918 -17.026287079 2.5424178602e-06
          -0.89949733019 -3.5425200462 2.657155278e-07 -0.79690796137 -11.533798218 -0.3293774426
          5.614218235 -16.86655426 -0.52923130989 0 0 0
          -1.2840436697 -5.2182221413 0.013343605213 12.922338486 -17.54123497 0.31281581521
          -0.39036118984 -1.845241785 -0.10021202266 2.7986254692 -14.109666824 0.27880772948
          5.6330761909 -16.876783371 -0.26433336735 4.8685731888 -14.222994804 0.55894416571
          10.380838394 -17.25252533 0.29556712508 1.0335245132 -14.076731682 -0.59175258875
          -2.1747531891 -9.4262495041 -0.79023689032 -2.4496862888 -4.7962107658 0.25128385425
          -1.3608959913 -5.3051571846 -0.0060753561556 -2.6373291016 -6.9200825691 0.33583942056
          1.0451968908 -14.061215401 -0.29267665744 -2.184896946 -9.3363447189 -0.38880807161
          -0.77651947737 -11.542057991 1.4938369759e-06 0.34380280972 -11.352337837 0.56805545092
          7.9397563934 -17.01984024 0.27697989345 -1.3490599394 -9.0079460144 0.64265143871
          5.6371488571 -16.881361008 2.5542910862e-06 -0.8967359066 -3.5290193558 -0.081841289997
          -1.3885717392 -5.3198428154 5.4042607189e-07 1.0569344759 -14.063082695 2.0567208594e-06
          -2.1707134247 -9.3286113739 9.3803595291e-07 -1.692363143 -7.1665840149 -0.092330187559
          3.5153412819 -16.821573257 -0.53841269016 12.901344299 -17.517852783 0.62587320805
          0 0 0 -0.79690665007 -11.533798218 0.32938045263
          -0.39844375849 -1.852653265 -0.22658884525 -1.7736958265 -7.3028717041 -0.1021296382
          2.7895157337 -14.1086092 0.56675469875 10.360011101 -17.226551056 0.59449493885
          3.5357794762 -16.814687729 -0.26806113124 13.922115326 -20.117143631 -0.60754573345
          0 0 0 -2.5847415924 -7.0049958229 0.68473356962
          13.933179855 -20.142055511 -0.30312165618 -0.22055622935 -1.949092865 0.14108793437
          11.317146301 -19.829492569 -0.57257091999 5.6330776215 -16.876783371 0.26433849335
          0 0 0 -1.3608955145 -5.3051567078 0.0060764602385
          11.328977585 -19.856618881 -0.28458240628 -0.20141477883 -1.9261535406 0.06241799891
          1.0451983213 -14.061215401 0.29268079996 -2.1848957539 -9.3363447189 0.38880997896
          7.9199914932 -16.996980667 0.55807757378 -1.7856924534 -7.3065490723 9.0651701612e-07
          3.5422673225 -16.818439484 2.5761314646e-06 -0.84409838915 -3.500074625 -0.1381252259
          -0.22554053366 -14.282291412 -0.69623374939 -0.438557446 -3.7156789303 0.1328895092
          8.7516393661 -19.594806671 -0.5305005908 -1.689866066 -12.009183884 -0.82201230526
          13.937927246 -20.150432587 3.0937721931e-06 0 0 0
          -0.20212335885 -14.236785889 -0.33639419079 11.333230972 -19.864702225 3.1057875276e-06
          -0.20633688569 -1.9323219061 2.0339132334e-07 8.7660579681 -19.618871689 -0.2632086575
          -0.45520788431 -3.7169044018 0.072063557804 -1.6715726852 -11.932130814 -0.40427199006
          -0.80281925201 -11.583109856 0.69096469879 -0.18320924044 -14.239140511 2.0332317945e-06
          -2.1985669136 -9.6065368652 -0.25736030936 -1.7736953497 -7.3028717041 0.10213141888
          1.7135956287 -16.848669052 -0.5891507268 8.7702846527 -19.624362946 3.111561e-06
          5.6142201424 -16.86655426 0.52923643589 3.5357809067 -16.814687729 0.26806631684
          -1.6541672945 -11.924555779 1.4733985836e-06 -0.45784926414 -3.7259557247 5.2539314765e-07
          -1.284042716 -5.2182226181 -0.013342414983 13.933180809 -20.142055511 0.30312785506
          6.2807888985 -19.46238327 -0.49371835589 -2.2877597809 -9.7417707443 -0.2433604002
          -0.68920505047 -5.506415844 0.092525154352 1.7340480089 -16.822914124 -0.28990510106
          1.0335271358 -14.076731682 0.59175682068 -2.1747510433 -9.4262495041 0.79023879766
          0 0 0 -0.72434693575 -5.5519175529 0.050689190626
          11.328978539 -19.856618881 0.28458863497 -0.20141462982 -1.9261535406 -0.062417577952
          6.2971315384 -19.472322464 -0.24688501656 -2.2072443962 -9.6895570755 1.2303108861e-06
          1.7462586164 -16.823762894 2.5901895242e-06 -0.20212201774 -14.236785889 0.33639827371
          6.3004245758 -19.474769592 3.1197650969e-06 -0.73169648647 -5.5742468834 9.0415733212e-07
          8.7660589218 -19.618871689 0.26321488619 -0.45520758629 -3.7169044018 -0.07206248492
          -1.6715716124 -11.932130814 0.40427494049 -1.6923620701 -7.1665840149 0.092331975698
          3.5153439045 -16.821573257 0.53841793537 4.0939469337 -19.464012146 -0.50037133694
          13.922117233 -20.117143631 0.60755193233 0 0 0
          -0.97589993477 -7.5278787613 0.047318004072 -0.22055575252 -1.9490929842 -0.14108738303
          11.317149162 -19.829492569 0.57257711887 -2.2877595425 -9.7417707443 0.24336290359
          1.7340495586 -16.822914124 0.28991028666 4.1146521568 -19.452127457 -0.25146046281
          -1.17946136 -14.689888 -0.81049025059 -1.014608264 -7.6228766441 0.024895960465
          -0.72434657812 -5.5519175529 -0.05068738386 6.2971329689 -19.472322464 0.24689126015
          -1.1435548067 -14.625850677 -0.39712923765 0.3648326993 -17.028738022 -0.67347896099
          -2.4924621582 -12.489321709 -0.88701355457 14.9317379 -22.753454208 -0.60466492176
          0 0 0 12.259137154 -22.464082718 -0.56397235394
          -0.22553806007 -14.282292366 0.69623780251 -0.43855667114 -3.7156791687 -0.13288837671
          8.7516412735 -19.594806671 0.53050678968 -2.4740490913 -12.426924706 -0.45859727263
          0.39608609676 -16.986631393 -0.32995501161 -1.689863801 -12.009183884 0.82201528549
          14.934668541 -22.782302856 -0.30140507221 0 0 0
          -1.024307847 -7.6523804665 1.2917271306e-06 4.1208515167 -19.454799652 3.1320705602e-06
          -0.077931120992 -1.955429554 0.067900687456 12.262844086 -22.494438171 -0.28048485518
          -0.05964628607 -1.9283646345 0.029122684151 -1.1262406111 -14.6180439 1.9924675598e-06
          9.5776090622 -22.215774536 -0.51741331816 -2.457306385 -12.404905319 1.5060688838e-06
          0.41283333302 -16.983959198 2.5540668958e-06 14.937303543 -22.791664124 3.7042261738e-06
          0 0 0 -0.12917366624 -3.7509610653 0.087623618543
          9.5847158432 -22.243476868 -0.25665250421 12.264962196 -22.503435135 3.6907574668e-06
          -2.1985659599 -9.6065378189 0.25736314058 1.7135983706 -16.848669052 0.5891559124
          -0.059174731374 -1.9306739569 3.4690731354e-07 -0.11815359443 -3.7379045486 0.0462737903
          6.2807912827 -19.46238327 0.49372461438 -0.6892041564 -5.5064163208 -0.092523336411
          -1.2453678846 -9.8952817917 0.0014044350246 2.333782196 -19.559844971 -0.57185381651
          -1.0146079063 -7.6228766441 -0.024893386289 4.1146535873 -19.452127457 0.2514667213
          -1.2891796827 -10.028363228 -0.0065729734488 2.3603906631 -19.52970314 -0.28068193793
          -1.1435536146 -14.625850677 0.39713323116 9.5880498886 -22.250110626 3.6823166738e-06
          -0.11451204121 -3.742484808 7.9344113146e-07 6.9287242889 -22.046772003 -0.4747954309
          -2.4740478992 -12.426924706 0.45860025287 0.39608746767 -16.986631393 0.3299601078
          14.934669495 -22.782302856 0.30141246319 0 0 0
          -0.16973569989 -5.5757365227 0.097289703786 6.938639164 -22.061120987 -0.2365398854
          12.262845039 -22.494438171 0.28049224615 -0.16368369758 -5.5954508781 0.051663309336
          -1.3270797729 -10.071949005 1.6666180045e-06 2.3743238449 -19.530664444 3.1082092846e-06
          -0.059646170586 -1.9283646345 -0.029121996835 9.5847167969 -22.243476868 0.25665986538
          6.9417552948 -22.063884735 3.6812164126e-06 -0.16187897325 -5.6103901863 1.2612410956e-06
          4.0939493179 -19.464012146 0.50037759542 -0.66143465042 -17.389041901 -0.76405763626
          -0.11815335602 -3.7379045486 -0.046272199601 -0.9758990407 -7.5278787613 -0.047315455973
          -2.0067281723 -15.178735733 -0.88847893476 -0.62037068605 -17.339014053 -0.37512859702
          -1.179459095 -14.689888 0.8104942441 -1.9672410488 -15.118449211 -0.44638258219
          -1.2891793251 -10.028363228 0.0065762684681 2.3603920937 -19.52970314 0.28068816662
          0.36483517289 -17.028738022 0.67348408699 -2.4924602509 -12.489321709 0.88701659441
          -0.19866593182 -7.6108341217 0.10810948163 4.5813469887 -22.030885696 -0.47390705347
          14.931739807 -22.753454208 0.60467231274 0 0 0
          12.259139061 -22.464082718 0.56397968531 -0.19466239214 -7.6667814255 0.05600630492
          -0.60505563021 -17.331068039 2.4715643576e-06 -1.5877043009 -12.418639183 0.059155978262
          0.94247192144 -19.728719711 -0.63949531317 4.5981020927 -22.018205643 -0.23788760602
          -0.077930577099 -1.9554296732 -0.067899905145 -1.9526381493 -15.101060867 1.9487272311e-06
          6.9386401176 -22.061120987 0.23654723167 -0.16368341446 -5.5954508781 -0.051660813391
          0.9748673439 -19.69121933 -0.31622239947 -1.7277241945 -12.660333633 -0.12321789563
          9.5776109695 -22.215774536 0.51742064953 -0.19469563663 -7.6994028091 1.6963517737e-06
          4.602973938 -22.019561768 3.6785741031e-06 -0.12917286158 -3.7509613037 -0.087622031569
          0.99026834965 -19.686201096 3.0372195852e-06 15.946573257 -25.445966721 -0.61129868031
          0 0 0 -1.6923015118 -12.658340454 1.9380299818e-06
          15.94400692 -25.478925705 -0.30487433076 0 0 0
          -0.62036943436 -17.339014053 0.37513354421 13.200849533 -25.15294838 -0.5658942461
          -1.2453670502 -9.8952817917 -0.0014012936736 2.3337848186 -19.559846878 0.57186001539
          0.063445359468 -1.8925516605 -0.0054558524862 -1.9672399759 -15.118449211 0.44638648629
          13.198928833 -25.186576843 -0.28189533949 0.079021245241 -1.8645436764 -0.0038612014614
          6.9287266731 -22.046772003 0.47480273247 15.944851875 -25.489643097 4.2950309762e-06
          -0.19466212392 -7.6667814255 -0.056002963334 10.423534393 -24.891094208 -0.51804190874
          0.18740797043 -3.6232385635 0.039622031152 4.5981035233 -22.018205643 0.2378949523
          0 0 0 2.8764066696 -22.157180786 -0.54651683569
          -0.22327330709 -9.9245223999 0.12087439746 -0.16973485053 -5.5757369995 -0.097287282348
          0.22124542296 -3.6103000641 0.017199981958 10.424975395 -24.922786713 -0.25714880228
          13.199346542 -25.197050095 4.2553151616e-06 0.97486871481 -19.69121933 0.31622847915
          -0.2208032012 -10.040582657 0.063314571977 2.9052386284 -22.127000809 -0.26890322566
          -1.7277238369 -12.660333633 0.12322173268 0.083802469075 -1.8671917915 5.0079023595e-07
          -1.4926108122 -17.858345032 -0.84187626839 10.42702961 -24.931686401 4.2286683311e-06
          -0.66143244505 -17.389041901 0.76406252384 0.23026379943 -3.6134037971 1.0623564322e-06
          -0.21991369128 -10.086965561 2.0710554054e-06 -1.4508196115 -17.806028366 -0.41685384512
          2.9199645519 -22.126722336 3.6101159822e-06 -2.006726265 -15.178735733 0.88848274946
          15.944007874 -25.478923798 0.30488291383 7.6395587921 -24.675426483 -0.47278103232
          -2.4759020805 -15.736979485 -0.91310012341 0 0 0
          0.35916802287 -5.3885550499 0.091593950987 -0.15294201672 -20.026264191 -0.70312207937
          0.39957225323 -5.4083356857 0.046212419868 7.6451706886 -24.697658539 -0.23418849707
          13.198929787 -25.186576843 0.28190383315 -2.4681384563 -15.704954147 -0.47200581431
          -0.11581848562 -19.987979889 -0.34861081839 0.079021319747 -1.8645435572 0.0038621698041
          -0.19866515696 -7.6108345985 -0.10810628533 4.5813493729 -22.030885696 0.47391435504
          -1.43587327 -17.79300499 2.3458458145e-06 -1.5877035856 -12.418639183 -0.059152215719
          0.94247442484 -19.728719711 0.63950127363 7.6484708786 -24.702890396 4.2123047024e-06
          10.424976349 -24.922786713 0.25715723634 -2.4184348583 -15.686833382 1.9079698177e-06
          0.22124558687 -3.6102998257 -0.017197879031 0.41138166189 -5.4211249352 1.5974088683e-06
          -0.22080300748 -10.040582657 -0.063310496509 2.9052400589 -22.127000809 0.26891040802
          -0.10229451954 -19.980381012 2.9065436138e-06 1.493462801 -22.316930771 -0.60569310188
          -0.24718506634 -12.648821831 0.1301509738 1.5237445831 -22.283441544 -0.30014255643
          -0.24332951009 -12.806257248 0.070104978979 15.946575165 -25.445966721 0.61130726337
          0 0 0 -1.4508185387 -17.806028366 0.41685852408
          0.58442801237 -7.3547816277 0.13681070507 5.0826487541 -24.580184937 -0.45524778962
          0.62969326973 -7.4181523323 0.072547294199 13.20085144 -25.15294838 0.56590270996
          0.063445940614 -1.8925516605 0.0054568680935 5.096344471 -24.57327652 -0.22728693485
          7.6451716423 -24.697658539 0.23419690132 -2.4681377411 -15.704954147 0.47200965881
          0.39957240224 -5.4083356857 -0.046209279448 -0.11581726372 -19.987979889 0.34861662984
          1.537913084 -22.277421951 3.4918682559e-06 -0.25487697124 -12.883247375 2.3785321446e-06
          10.423536301 -24.891094208 0.518050313 0.18740873039 -3.6232385635 -0.039620004594
          2.8764090538 -22.157180786 0.54652398825 0.64258819818 -7.4413461685 2.0451025193e-06
          -0.22327271104 -9.9245223999 -0.12087053061 5.0995240211 -24.574045181 4.1983275878e-06
          16.974861145 -28.206752777 -0.62269854546 0 0 0
          -1.4926089048 -17.858345032 0.84188085794 1.5237458944 -22.283441544 0.30014953017
          0 0 0 14.151874542 -27.908374786 -0.57309645414
          -1.9977996349 -18.470256805 -0.99343466759 -0.24332943559 -12.806256294 -0.070100314915
          0.23719905317 -1.7448432446 -0.088999554515 -0.9940263629 -20.463165283 -0.78487038612
          16.969507217 -28.243593216 -0.3109665513 7.6395606995 -24.675426483 0.47278937697
          14.1472435 -27.945356369 -0.28605228662 0.25475525856 -1.7231477499 -0.040490649641
          -2.4759008884 -15.736979485 0.91310411692 -1.9519693851 -18.387254715 -0.48482242227
          0.35916870832 -5.3885550499 -0.091590993106 3.3777732849 -24.667612076 -0.51863282919
          0.62969332933 -7.4181518555 -0.072543293238 -0.15293981135 -20.026264191 0.70312774181
          0.86035919189 -9.6762638092 0.20692189038 5.0963454247 -24.57327652 0.22729530931
          -0.9543312788 -20.416330338 -0.38629496098 0.90823310614 -9.7650194168 0.10299582034
          3.4053883553 -24.637781143 -0.25606659055 11.292081833 -27.634847641 -0.52325850725
          16.969276428 -28.255746841 4.8404081099e-06 0.58287012577 -3.3006103039 0.0052704885602
          0 0 0 11.290994644 -27.67083931 -0.26037687063
          0.6407378912 -3.3018841743 -0.0066697555594 14.146585464 -27.957406998 4.7764710871e-06
          0.3383564651 -22.550945282 -0.65176725388 -1.9238426685 -18.375764847 2.1284606646e-06
          -0.93956571817 -20.408153534 2.698795015e-06 -0.27988931537 -15.28814888 0.20211681724
          0.26060953736 -1.7336153984 6.803048791e-07 0.36917176843 -22.51852417 -0.32587254047
          3.4191901684 -24.635482788 4.1057301132e-06 -0.30956423283 -15.587140083 0.052498660982
          0.93783539534 -9.807226181 2.3903141937e-06 1.4934653044 -22.316930771 0.60569995642
          11.291828156 -27.681934357 4.7322009777e-06 -0.24718473852 -12.648820877 -0.13014657795
          0.64762067795 -3.3049619198 1.3282017335e-06 8.4178686142 -27.385536194 -0.47289556265
          16.969507217 -28.243593216 0.31097620726 0.38091114163 -22.511016846 3.3077305943e-06
          0.99034029245 -4.9811692238 0.12474006414 0.58442854881 -7.3547811508 -0.13680696487
          -0.29451471567 -15.5523386 2.6094649002e-06 5.0826506615 -24.580184937 0.45525607467
          0 0 0 8.4219617844 -27.416652679 -0.23443597555
          1.063740015 -5.0133986473 0.062399145216 14.1472435 -27.945356369 0.28606182337
          -1.9519684315 -18.387254715 0.484826684 -0.95433020592 -20.416330338 0.38630032539
          0.25475528836 -1.7231475115 0.04049192369 3.4053897858 -24.637781143 0.25607478619
          0.90823298693 -9.7650184631 -0.10299114138 11.290995598 -27.67083931 0.26038631797
          8.4246444702 -27.4249897 4.7031862778e-06 2.0346784592 -24.792922974 -0.57590699196
          1.2146120071 -12.149623871 0.1647041142 1.087249279 -5.0252361298 1.8847083538e-06
          0.6407378912 -3.3018839359 0.0066723497584 1.3381532431 -12.340028763 0.21100999415
          0.36917299032 -22.51852417 0.32587912679 2.0609419346 -24.761278152 -0.28549534082
          -0.30956423283 -15.58713913 -0.052493572235 5.6729650497 -27.189771652 -0.43241974711
          16.974863052 -28.206752777 0.6227081418 0 0 0
          1.3365184069 -6.8485569954 0.23491570354 5.6860122681 -27.195482254 -0.21650829911
          14.15187645 -27.908374786 0.57310593128 1.4077045918 -6.9237027168 0.13930179179