<?xml version="1.0"?>
<VTKFile type="UnstructuredGrid" version="0.1" byte_order="LittleEndian" header_type="UInt32" compressor="vtkZLibDataCompressor">
  <UnstructuredGrid>
    <Piece NumberOfPoints="6405" NumberOfCells="4800">
      <PointData>
        <DataArray type="Float32" Name="DISPLACEMENT" NumberOfComponents="3" ComponentName0="X-DISPLACEMENT" ComponentName1="Y-DISPLACEMENT" ComponentName2="Z-DISPLACEMENT" format="ascii" RangeMin="0" RangeMax="354.04057367">
          0 0 0 0 0 0
          2.7945632935 -1.6311420202 -1.2833890915 0 0 0
          1.6465127468 -0.91972178221 -0.88093322515 0 0 0
          2.5690872669 -1.865670681 -0.5047107935 1.4381729364 -1.1217657328 -0.35934075713
          0 0 0 5.0717129707 -3.3564612865 -1.3048183918
          0 0 0 5.0097222328 -3.6255838871 -0.66407090425
          3.2853569984 -2.8164026737 -0.97657042742 0 0 0
          0 0 0 2.5840671062 -1.9331527948 -1.1076116913e-08
          0.89814054966 -0.6056125164 -0.52838802338 1.4329144955 -1.1554870605 1.4362642187e-09
          3.2144072056 -3.0392782688 -0.49714636803 0.75626558065 -0.80007565022 -0.22131676972
          4.9567708969 -3.6974039078 -1.2126098348e-08 1.8068498373 -2.4378716946 -0.64009582996
          0 0 0 3.1720161438 -3.1057038307 9.6715293552e-09
          1.721591711 -2.6397745609 -0.33074012399 0 0 0
          7.0753426552 -5.7612066269 -1.1941322088 0 0 0
          0.747215271 -0.82936519384 1.3212117622e-08 0 0 0
          0 0 0 2.5690872669 -1.8656708002 0.50471073389
          4.8039193153 -5.2659730911 -0.94152957201 7.1000738144 -5.953347683 -0.60465085506
          0.042496792972 -0.5291903019 -0.14947633445 1.4381729364 -1.1217657328 0.35934075713
          4.8171172142 -5.4446840286 -0.47850942612 -0.071415014565 -0.7391884923 -0.084430687129
          1.6891020536 -2.6967535019 3.1160954705e-08 5.0097222328 -3.6255838871 0.66407090425
          0 0 0 0 0 0
          0.26662361622 -2.2697725296 -0.33478343487 2.8353457451 -4.9199295044 -0.70498174429
          7.0786728859 -6.0180621147 -8.207749147e-09 3.2144072056 -3.0392782688 0.49714636803
          2.8011462688 -5.0801606178 -0.35793542862 0.75626558065 -0.80007565022 0.22131678462
          4.8052430153 -5.5007481575 2.2569292213e-08 0.16413357854 -2.4613661766 -0.18075203896
          -0.097254753113 -0.77582591772 2.5760211741e-08 0 0 0
          8.847401619 -8.5305166245 -1.0346359015 0 0 0
          6.2411265373 -8.0907926559 -0.87252146006 1.721591711 -2.6397745609 0.33074018359
          8.8997688293 -8.6561098099 -0.52323830128 2.7945632935 -1.6311420202 1.2833890915
          0 0 0 0 0 0
          0.13923616707 -2.5180447102 5.250440438e-08 2.7887244225 -5.1298012733 5.3078675677e-08
          -0.75031787157 -0.72540265322 0.16376051307 6.2817873955 -8.2114953995 -0.43929368258
          1.6465127468 -0.91972178221 0.88093322515 0.82285887003 -4.7112064362 -0.50291574001
          0 0 0 7.1000738144 -5.953347683 0.60465085506
          -0.86325967312 -0.93730425835 0.049724921584 0.75423496962 -4.8484349251 -0.25524562597
          4.8171172142 -5.4446840286 0.47850945592 -0.071415014565 -0.7391884923 0.084430739284
          3.9224498272 -7.7667531967 -0.72159028053 -1.0024328232 -2.3620271683 -0.16340132058
          8.8961687088 -8.6988697052 -5.2694520969e-10 5.0717129707 -3.3564612865 1.3048183918
          0 0 0 0 0 0
          3.9209563732 -7.8731293678 -0.36302101612 3.2853569984 -2.8164029121 0.97657042742
          6.2870397568 -8.2519598007 3.8382182765e-08 -1.137691617 -2.509780407 -0.07372559607
          0.89814060926 -0.60561257601 0.52838808298 -0.89673066139 -0.99691772461 4.2156742097e-08
          0.7401163578 -4.8937339783 8.419045372e-08 2.8011462688 -5.0801610947 0.35793551803
          0.16413359344 -2.4613661766 0.18075214326 3.9201517105 -7.9098238945 7.7294693313e-08
          1.8068498373 -2.4378716946 0.64009588957 -1.1480131149 -2.5710225105 8.0034105565e-08
          1.6372989416 -7.5507268906 -0.60939007998 8.8997688293 -8.6561098099 0.52323830128
          7.0753426552 -5.7612066269 1.1941322088 0 0 0
          10.404972076 -11.503186226 -0.90198713541 0 0 0
          0 0 0 -0.77501529455 -4.7319307327 -0.41786050797
          1.6054325104 -7.6324849129 -0.30237835646 10.457642555 -11.579799652 -0.45375356078
          7.5846962929 -11.103936195 -0.80259364843 6.2817873955 -8.2114953995 0.43929377198
          -1.4124132395 -1.1074882746 0.43014442921 0 0 0
          4.8039193153 -5.2659730911 0.94152963161 0.042496819049 -0.5291903019 0.14947639406
          -0.86457937956 -4.8130321503 -0.1993291378 -0.86325967312 -0.93730425835 -0.049724839628
          -1.5448604822 -1.3084512949 0.15043348074 0.75423502922 -4.8484349251 0.25524577498
          7.6294775009 -11.180454254 -0.4014557004 3.9209563732 -7.8731293678 0.36302116513
          1.5988419056 -7.6637840271 1.1738043781e-07 10.462993622 -11.606836319 9.5265697553e-09
          -2.0295324326 -2.7288694382 -0.23030093312 -1.137691617 -2.509780407 0.073725759983
          0 0 0 5.0189123154 -10.79472065 -0.70821601152
          0.26662364602 -2.2697725296 0.33478352427 2.8353457451 -4.9199295044 0.7049818635
          -0.8716673851 -4.8560328484 1.2094540125e-07 7.6401853561 -11.206455231 5.5771078422e-08
          -1.5393775702 -1.3821828365 6.8325668678e-08 -2.2278413773 -2.7433011532 -0.084143638611
          5.0349345207 -10.860919952 -0.3541572392 8.8474025726 -8.5305175781 1.0346359015
          0 0 0 -0.25183334947 -7.5206370354 -0.56045401096
          6.2411265373 -8.0907926559 0.87252151966 -2.2118418217 -2.7955040932 1.0983937671e-07
          -0.29564532638 -7.5588874817 -0.27462789416 5.0396637917 -10.884284973 1.0218997204e-07
          -0.75031787157 -0.72540265322 -0.16376042366 1.6054325104 -7.6324849129 0.30237859488
          2.5525705814 -10.579613686 -0.64162743092 10.457642555 -11.579799652 0.45375356078
          -1.8823763132 -5.1543045044 -0.60985666513 0.82285892963 -4.7112064362 0.50291591883
          0 0 0 -0.86457937956 -4.8130321503 0.19932937622
          2.5476481915 -10.62525177 -0.3187199831 -1.5448604822 -1.3084512949 -0.15043336153
          -1.9793061018 -5.09770298 -0.26628834009 7.6294775009 -11.180454254 0.4014557898
          3.9224498272 -7.7667531967 0.72159045935 -1.0024328232 -2.3620271683 0.16340149939
          11.794083595 -14.575815201 -0.80369067192 0 0 0
          -0.29863837361 -7.5839500427 1.6110323031e-07 8.8385038376 -14.20717907 -0.74124282598
          11.83836174 -14.62319088 -0.40276780725 0 0 0
          -1.757256031 -1.6441028118 0.58311033249 8.8782272339 -14.255908966 -0.36945229769
          2.5459353924 -10.643567085 1.496677271e-07 -1.8976824284 -1.8016865253 0.19312237203
          -2.2278411388 -2.7433011532 0.084143869579 -1.9670419693 -5.1344041824 1.5804467068e-07
          5.0349349976 -10.860919952 0.35415744781 6.0917921066 -13.908096313 -0.67798149586
          -2.6760475636 -3.3747110367 -0.57026070356 11.84661293 -14.639903069 2.0632187514e-08
          0 0 0 -2.886590004 -3.2106211185 -0.25581967831
          6.1143503189 -13.949543953 -0.33789718151 8.889380455 -14.272104263 7.3830264569e-08
          -1.8325570822 -1.8802930117 1.1593150617e-07 1.6372990608 -7.5507268906 0.60939031839
          0.4050462842 -10.5286026 -0.6217443347 10.404972076 -11.503186226 0.90198719501
          0 0 0 -1.4735541344 -7.9509453773 -0.76058548689
          -0.29564529657 -7.5588874817 0.27462822199 -0.77501517534 -4.7319307327 0.41786077619
          7.5846962929 -11.103936195 0.80259376764 -1.4124131203 -1.1074882746 -0.4301442802
          -1.5061324835 -7.8816070557 -0.34850624204 0.38936430216 -10.537353516 -0.30826851726
          2.5476481915 -10.62525177 0.31872028112 -1.9793061018 -5.09770298 0.26628866792
          6.1210360527 -13.963120461 1.2697245211e-07 -2.857385397 -3.2305350304 1.4048497121e-07
          3.4701135159 -13.698740005 -0.63327181339 -2.47397995 -5.9518561363 -0.97159856558
          -2.0295324326 -2.7288696766 0.23030117154 11.83836174 -14.62319088 0.40276786685
          5.0189123154 -10.79472065 0.70821624994 0 0 0
          0.38965943456 -10.550833702 1.9863571765e-07 -1.48830688 -7.9077119827 2.0270213952e-07
          3.4788606167 -13.721845627 -0.31574320793 8.8782272339 -14.25590992 0.3694524467
          -2.52344203 -5.7805261612 -0.45579054952 -1.8976824284 -1.8016865253 -0.19312217832
          -0.25183326006 -7.5206370354 0.56045430899 3.4806880951 -13.731208801 1.8052219275e-07
          6.1143503189 -13.949543953 0.33789741993 -2.886590004 -3.210621357 0.25581997633
          -2.502727747 -5.7817173004 1.9311050892e-07 13.060754776 -17.70390892 -0.73492485285
          0 0 0 13.094906807 -17.735424042 -0.3672221005
          2.5525708199 -10.579613686 0.64162772894 10.013957977 -17.358249664 -0.69183671474
          -1.882376194 -5.1543049812 0.60985696316 -0.98739987612 -10.927249908 -0.81781488657
          -2.2174346447 -2.284065485 0.55911892653 -1.5061323643 -7.8816070557 0.34850665927
          0.38936436176 -10.537353516 0.30826890469 0 0 0
          10.045613289 -17.391328812 -0.34417486191 -0.98732721806 -10.850753784 -0.38478046656
          -2.4745943546 -2.3594136238 0.14084179699 1.1084849834 -13.642158508 -0.64110028744
          -2.0888743401 -8.815448761 -1.0719704628 11.794083595 -14.575815201 0.80369073153
          0 0 0 8.8385038376 -14.20717907 0.7412430048
          13.103116989 -17.746236801 3.1956798097e-08 -2.0801699162 -8.6725406647 -0.51232892275
          1.1077954769 -13.629300117 -0.31885251403 -1.757256031 -1.6441028118 -0.58311015368
          7.1267538071 -17.068916321 -0.64509409666 -3.2614035606 -4.1142258644 -0.9411534667
          0 0 0 3.4788606167 -13.721846581 0.31574356556
          -2.5234417915 -5.7805261612 0.45579093695 10.055243492 -17.401586533 9.1833747717e-08
          -0.96689277887 -10.867435455 2.4293089496e-07 7.1486992836 -17.095849991 -0.32072529197
          -3.4125552177 -3.8743536472 -0.48742443323 -2.3932607174 -2.4469788074 1.5452958735e-07
          6.0917921066 -13.908096313 0.67798173428 -2.6760473251 -3.3747112751 0.57026100159
          1.1102050543 -13.635538101 2.3386854764e-07 -2.0528571606 -8.6711654663 2.3881349875e-07
          0.40504637361 -10.5286026 0.62174475193 7.155611515 -17.103313446 1.514941772e-07
          -3.4029026031 -3.8438484669 1.8703293847e-07 -1.4735540152 -7.9509453773 0.76058596373
          13.094906807 -17.735424042 0.3672221601 4.3579463959 -16.864980698 -0.61320239305
          0 0 0 -2.9695148468 -6.8502998352 -1.2280167341
          4.3710484505 -16.873590469 -0.30622074008 10.045613289 -17.391328812 0.34417507052
          -2.4745943546 -2.3594136238 -0.14084151387 -0.98732715845 -10.850753784 0.3847809732
          -2.9766600132 -6.6743364334 -0.6268401742 3.4701135159 -13.698740005 0.63327217102
          -0.45758911967 -13.995778084 -0.83491665125 1.1077954769 -13.629300117 0.31885296106
          -2.4739797115 -5.9518561363 0.97159904242 -2.0801696777 -8.6725406647 0.51232939959
          -1.6979789734 -11.774133682 -1.0911431313 -0.43975421786 -13.913417816 -0.39889350533
          4.3748693466 -16.87739563 2.1063587496e-07 7.1486992836 -17.095849991 0.32072558999
          -3.4125552177 -3.8743538857 0.48742479086 -1.6634629965 -11.649719238 -0.52740007639
          -2.9630324841 -6.63692379 2.3714716235e-07 14.241280556 -20.870811462 -0.68838369846
          0 0 0 -2.2850189209 -3.0377678871 0.42462810874
          -0.41832000017 -13.921869278 2.8019155707e-07 1.8265630007 -16.804246902 -0.64211595058
          11.125782013 -20.542486191 -0.65502911806 13.060754776 -17.70390892 0.73492491245
          0 0 0 0 0 0
          -1.6335146427 -11.645478249 2.7780828304e-07 -2.5678539276 -9.8218393326 -1.2770760059
          14.265942574 -20.894323349 -0.34335377812 1.8333884478 -16.776634216 -0.31932935119
          11.149087906 -20.567146301 -0.32559499145 10.013957977 -17.358251572 0.69183689356
          -2.6259043217 -3.025496006 0.025356065482 -0.9873996973 -10.927249908 0.81781542301
          -2.2174346447 -2.284065485 -0.5591186285 -2.5342242718 -9.6847724915 -0.64781975746
          4.3710484505 -16.873590469 0.30622115731 -2.9766600132 -6.6743364334 0.62684065104
          8.1238708496 -20.261844635 -0.61762434244 1.1084851027 -13.642158508 0.64110076427
          -2.0888741016 -8.815448761 1.0719710588 0 0 0
          -3.5918869972 -5.013048172 -1.2895921469 14.272824287 -20.902013779 4.272079579e-08
          -2.5338935852 -3.0924193859 1.4012873351e-07 1.83715868 -16.778188705 2.6837307132e-07
          8.1420145035 -20.28045845 -0.30665594339 7.1267538071 -17.068916321 0.64509439468
          11.156618118 -20.574146271 1.0959328733e-07 -3.2614035606 -4.1142258644 0.94115382433
          -2.5104932785 -9.6565561295 2.7375651257e-07 -3.6848380566 -4.7836127281 -0.67694109678
          -0.43975412846 -13.913417816 0.39889407158 -1.6634628773 -11.649719238 0.52740061283
          -1.294339776 -14.768451691 -1.0723302364 8.14823246 -20.284566879 1.7613160708e-07
          -3.6668448448 -4.7405982018 2.2188859816e-07 -1.2470213175 -14.658260345 -0.52302229404
          5.2203679085 -20.059043884 -0.59460669756 0 0 0
          -3.2056539059 -7.9467067719 -1.4872795343 14.265942574 -20.894323349 0.34335386753
          -2.6259043217 -3.025496006 -0.025355778635 1.8333884478 -16.776634216 0.31932988763
          5.2334160805 -20.059148788 -0.2968724966 4.3579468727 -16.864980698 0.61320281029
          11.149087906 -20.567146301 0.32559520006 0.10972715914 -17.107902527 -0.83093678951
          -2.2073175907 -12.806318283 -1.2681186199 -2.9695148468 -6.8502998352 1.228017211
          -3.1835012436 -7.78312397 -0.7585144043 -2.5342242718 -9.6847724915 0.6478202939
          0.13769695163 -17.023706436 -0.40067401528 -2.1530804634 -12.693450928 -0.64043110609
          -1.2172590494 -14.65000248 3.1435365599e-07 -0.45758897066 -13.995779037 0.83491718769
          8.1420145035 -20.28045845 0.30665630102 -1.697978735 -11.774133682 1.0911437273
          5.2379560471 -20.05988884 2.4137622745e-07 -3.6848380566 -4.7836127281 0.67694151402
          -3.1579420567 -7.7499346733 2.6016164156e-07 0.15932823718 -17.025724411 3.1693758729e-07
          -2.1247518063 -12.671211243 3.0453341537e-07 -2.7720115185 -11.036942482 -1.4983605146
          2.5530738831 -19.988197327 -0.63539779186 14.241280556 -20.870811462 0.68838381767
          0 0 0 -1.2470211983 -14.658261299 0.52302289009
          -2.2850189209 -3.0377678871 -0.42462778091 -2.7089886665 -10.915061951 -0.75831508636
          1.8265631199 -16.804246902 0.64211648703 11.125782013 -20.542486191 0.65502929688
          2.5636343956 -19.952760696 -0.31576371193 15.362635612 -24.070653915 -0.65837925673
          0 0 0 -2.5678536892 -9.8218393326 1.2770764828
          15.379221916 -24.090574265 -0.32816237211 -0.91772180796 -3.6696274281 0.36134454608
          12.18973732 -23.75451088 -0.62957656384 5.2334165573 -20.059148788 0.29687300324
          0 0 0 -3.1835012436 -7.78312397 0.75851494074
          12.205693245 -23.775032043 -0.31295064092 -1.1093699932 -3.715996027 0.019791932777
          0.13769705594 -17.023706436 0.40067464113 -2.153080225 -12.693450928 0.64043176174
          8.1238708496 -20.261844635 0.61762470007 -2.6767675877 -10.892588615 2.8148321007e-07
          2.5681920052 -19.951471329 3.0391854011e-07 -3.5918867588 -5.013048172 1.2895926237
          -0.85580617189 -17.777240753 -1.0322066545 -2.6593286991 -6.2905921936 -1.2785958052
          9.0911750793 -23.479602814 -0.59752196074 -1.8697072268 -15.747132301 -1.2239508629
          15.384459496 -24.096828461 5.212282872e-08 0 0 0
          -0.80255931616 -17.681201935 -0.50716382265 12.211167336 -23.780498505 1.2663628013e-07
          -1.0926266909 -3.7756459713 4.8597545543e-08 9.1050262451 -23.494022369 -0.29662901163
          -2.7635848522 -6.2875461578 -0.71184772253 -1.804548502 -15.654383659 -0.61650025845
          -1.2943395376 -14.768452644 1.0723309517 -0.7744858861 -17.669485092 3.5224817907e-07
          -2.413823843 -14.050821304 -1.4517236948 -2.7089886665 -10.915061951 0.75831568241
          0.71425151825 -20.236537933 -0.81367701292 9.1101894379 -23.496688843 2.0093293074e-07
          5.2203679085 -20.059043884 0.5946071744 2.5636343956 -19.952760696 0.31576430798
          -1.7760715485 -15.635011673 3.3634765373e-07 -2.680876255 -6.2488441467 1.7816128661e-07
          -3.2056536674 -7.9467067719 1.4872800112 15.379221916 -24.090574265 0.32816249132
          6.0701537132 -23.272598267 -0.58003801107 -2.3256623745 -13.966558456 -0.73165816069
          -2.6771776676 -9.4392795563 -1.764586091 0.74799484015 -20.155672073 -0.39469313622
          0.10972733796 -17.107902527 0.83093744516 -2.2073173523 -12.806318283 1.268119216
          0 0 0 -2.5378146172 -9.3884859085 -0.87266004086
          12.205693245 -23.775032043 0.31295087934 -1.1093699932 -3.715996027 -0.019791817293
          6.0819039345 -23.269203186 -0.28943920135 -2.2922370434 -13.950491905 3.013512071e-07
          0.76919567585 -20.153381348 3.5585841829e-07 -0.80255913734 -17.681201935 0.50716453791
          6.0863699913 -23.268751144 2.7336514563e-07 -2.4917960167 -9.3542613983 2.0758731978e-07
          9.1050262451 -23.494022369 0.29662939906 -2.7635848522 -6.2875461578 0.71184813976
          -1.8045483828 -15.654383659 0.6165009141 -2.7720112801 -11.036943436 1.4983611107
          2.5530741215 -19.988197327 0.63539838791 3.2911765575 -23.184553146 -0.6245469451
          15.362636566 -24.070655823 0.65837937593 0 0 0
          -2.2556052208 -12.566885948 -1.6628662348 -0.91772174835 -3.6696274281 -0.36134442687
          12.18973732 -23.75451088 0.62957680225 -2.3256623745 -13.966558456 0.73165875673
          0.74799489975 -20.155672073 0.39469385147 3.303866148 -23.147556305 -0.31018450856
          -1.5161435604 -18.643312454 -1.1554143429 -2.0777688026 -12.599831581 -0.81950056553
          -2.5378146172 -9.3884868622 0.87266045809 6.0819039345 -23.269203186 0.2894397378
          -1.4464515448 -18.57122612 -0.58164012432 -0.36685654521 -20.788009644 -0.97954058647
          -2.1059577465 -16.928714752 -1.363016367 16.446014404 -27.301586151 -0.64106196165
          0 0 0 13.220903397 -26.992811203 -0.61340337992
          -0.85580593348 -17.777240753 1.0322073698 -2.6593286991 -6.2905921936 1.2785961628
          9.0911750793 -23.479602814 0.59752231836 -2.0060002804 -16.881814957 -0.68490594625
          -0.3115054369 -20.707675934 -0.48409312963 -1.8697069883 -15.747132301 1.2239515781
          16.456102371 -27.320755005 -0.319547683 0 0 0
          -2.0344638824 -12.572532654 2.143503508e-07 3.3087277412 -23.145109177 3.4202952293e-07
          -0.032484393567 -3.9611594677 0.025242105126 13.230949402 -27.012119293 -0.30509620905
          -0.031474895775 -3.9881100655 0.01116500143 -1.4206776619 -18.553661346 3.7343039594e-07
          10.038580894 -26.719993591 -0.58361321688 -1.9761352539 -16.869369507 3.2808270589e-07
          -0.28609660268 -20.694149017 3.9435821009e-07 16.459882736 -27.32667923 5.8763991007e-08
          0 0 0 -0.06162853539 -6.8641371727 0.013577326201
          10.048892021 -26.733390808 -0.2899300158 13.234684944 -27.01722908 1.4202973375e-07
          -2.4138236046 -14.050821304 1.4517242908 0.71425169706 -20.236537933 0.81367772818
          -0.032558236271 -4.0776891708 -8.4204373252e-08 -0.069163680077 -7.2821822166 0.0034700687975
          6.0701537132 -23.272598267 0.58003854752 -2.6771774292 -9.4392795563 1.7645864487
          -1.9209115505 -15.519311905 -1.4887775183 1.3587158918 -23.370559692 -0.7868052125
          -2.0777688026 -12.599831581 0.81950104237 3.303866148 -23.147556305 0.31018516421
          -1.7390691042 -15.628185272 -0.73351889849 1.395909667 -23.297811508 -0.383271873
          -1.4464514256 -18.57122612 0.58164083958 10.053009033 -26.735961914 2.2540389466e-07
          -0.065761499107 -7.214053154 -1.1780461762e-07 6.9170432091 -26.504621506 -0.56808328629
          -2.0060002804 -16.881814957 0.68490660191 -0.31150528789 -20.707675934 0.4840939045
          16.456102371 -27.320755005 0.31954780221 0 0 0
          -0.091244719923 -10.606226921 -0.029766090214 6.9276499748 -26.501792908 -0.28341236711
          13.230949402 -27.012119293 0.30509650707 -0.08700158447 -11.211341858 -0.014038792811
          -1.7022864819 -15.608267784 2.2977503988e-07 1.4161367416 -23.293397903 3.9923949657e-07
          -0.031474851072 -3.9881100655 -0.011165140197 10.048892021 -26.733390808 0.28993046284
          6.9316663742 -26.501588821 3.0672430285e-07 -0.08477229625 -11.093916893 -8.848880384e-08
          3.2911765575 -23.184553146 0.62454766035 -1.1146416664 -21.505592346 -1.0713244677
          -0.069163605571 -7.2821822166 -0.0034702778794 -2.2556049824 -12.566885948 1.6628667116
          -1.7999600172 -19.683467865 -1.2432864904 -1.0445588827 -21.456727982 -0.53985309601
          -1.5161432028 -18.643312454 1.1554150581 -1.6996563673 -19.674358368 -0.62413430214
          -1.739068985 -15.628185272 0.73351937532 1.3959097862 -23.297811508 0.38327267766
          -0.36685627699 -20.788009644 0.97954136133 -2.1059575081 -16.928714752 1.363016963
          -0.090019643307 -13.64081955 -0.036976870149 4.0448331833 -26.393793106 -0.60997951031
          16.446014404 -27.301586151 0.64106208086 0 0 0
          13.220903397 -26.992811203 0.61340367794 -0.083610095084 -14.237840652 -0.017707142979
          -1.0230619907 -21.44185257 4.1826501729e-07 -1.6531317234 -18.245550156 -1.2829366922
          0.18215635419 -23.795383453 -0.91842377186 4.0592069626 -26.360271454 -0.30285409093
          -0.032484352589 -3.9611594677 -0.025242194533 -1.6763739586 -19.665460587 3.6551799099e-07
          6.9276499748 -26.501792908 0.28341296315 -0.087001472712 -11.211341858 0.0140386438
          0.23782217503 -23.733024597 -0.45609244704 -1.4899765253 -18.413053513 -0.6324018836
          10.038580894 -26.719993591 0.58361369371 -0.081397160888 -14.15527153 -2.656421394e-08
          4.0639848709 -26.358148575 3.8356071741e-07 -0.06162840873 -6.8641371727 -0.013577462174
          0.25992467999 -23.719930649 4.4325446424e-07 17.508886337 -30.565055847 -0.63373935223
          0 0 0 -1.4632370472 -18.401870728 2.6170843626e-07
          17.51398468 -30.585741043 -0.31602790952 0 0 0
          -1.0445587635 -21.456727982 0.53985393047 14.232217789 -30.259531021 -0.60435688496
          -1.9209113121 -15.519311905 1.4887779951 1.3587161303 -23.370559692 0.78680598736
          0.86113834381 -3.664134264 -0.31345796585 -1.6996561289 -19.674358368 0.624135077
          14.237809181 -30.280014038 -0.30087184906 1.0565268993 -3.7005796432 -0.0049224472605
          6.9170432091 -26.504621506 0.56808388233 17.516679764 -30.592172623 6.1165309262e-08
          -0.083609960973 -14.237840652 0.017707113177 10.974341393 -29.985813141 -0.57393610477
          2.5447976589 -6.285197258 1.2994605303 4.0592069626 -26.360273361 0.30285486579
          0 0 0 2.0465931892 -26.509687424 -0.75145667791
          -0.090387314558 -16.45192337 -0.039776578546 -0.091244496405 -10.606226921 0.029766013846
          2.6512479782 -6.2791771889 0.72508072853 10.982206345 -30.000865936 -0.28544095159
          14.24021244 -30.285676956 1.5469836967e-07 0.23782233894 -23.733024597 0.45609334111
          -0.083634898067 -17.018516541 -0.01930806227 2.0863518715 -26.449028015 -0.3673453927
          -1.4899764061 -18.413053513 0.63240242004 1.0394669771 -3.7614581585 -1.9560769715e-07
          -1.4547883272 -22.353132248 -1.1044728756 10.985467911 -30.004350662 2.4892233341e-07
          -1.1146413088 -21.505592346 1.0713253021 2.5668363571 -6.2381196022 -4.0877469587e-07
          -0.081654436886 -16.970125198 4.5217937839e-08 -1.3615561724 -22.381635666 -0.55537444353
          2.105214119 -26.444486618 4.4876207994e-07 -1.7999597788 -19.683469772 1.2432872057
          17.51398468 -30.585741043 0.31602802873 7.7657780647 -29.759832382 -0.55673229694
          -1.4064679146 -20.777330399 -1.0704009533 0 0 0
          2.578524828 -9.4538269043 1.8023589849 -0.64620614052 -24.345487595 -0.97667223215
          2.4293496609 -9.40645504 0.89195096493 7.7758207321 -29.760820389 -0.27778974175
          14.237809181 -30.280015945 0.30087214708 -1.2736990452 -20.98371315 -0.5292250514
          -0.57805609703 -24.322532654 -0.49326208234 1.0565270185 -3.7005796432 0.0049220742658
          -0.090019382536 -13.64081955 0.036976896226 4.0448331833 -26.393793106 0.60998028517
          -1.3458567858 -22.378578186 4.1529625605e-07 -1.6531313658 -18.245550156 1.2829372883
          0.18215665221 -23.795383453 0.91842466593 7.7792873383 -29.761951447 3.4120503756e-07
          10.982206345 -30.000867844 0.28544142842 -1.2580676079 -20.983943939 3.1091300912e-07
          2.6512482166 -6.2791771889 -0.725081563 2.3821578026 -9.3683309555 -3.6204437492e-07
          -0.083634749055 -17.018516541 0.019308168441 2.0863518715 -26.449028015 0.36734628677
          -0.56140208244 -24.312387466 4.7266976821e-07 0.79513543844 -26.801197052 -0.84936994314
          -0.092151723802 -19.011104584 -0.039802134037 0.85065865517 -26.758975983 -0.42374280095
          -0.086248107255 -19.533863068 -0.019502814859 17.508886337 -30.565055847 0.63373947144
          0 0 0 -1.361555934 -22.381637573 0.555375278
          2.1539912224 -12.600278854 1.6900930405 4.8156290054 -29.622425079 -0.59097832441
          1.9652371407 -12.644817352 0.83325058222 14.232217789 -30.259531021 0.60435718298
          0.86113834381 -3.664134264 0.31345769763 4.8317770958 -29.596252441 -0.29343256354
          7.7758207321 -29.760820389 0.27779042721 -1.2736988068 -20.98371315 0.52922570705
          2.4293498993 -9.40645504 -0.89195168018 -0.57805585861 -24.322532654 0.49326303601
          0.86926013231 -26.748636246 5.0069331792e-07 -0.084776155651 -19.515516281 1.2627920398e-07
          10.974341393 -29.985813141 0.57393664122 2.5447978973 -6.285197258 -1.2994612455
          2.0465934277 -26.509687424 0.75145763159 1.9210460186 -12.613926888 -2.4705531132e-07
          -0.090387009084 -16.45192337 0.039776727557 4.8362555504 -29.595632553 4.2869976369e-07
          18.565561295 -33.866359711 -0.63426542282 0 0 0
          -1.4547879696 -22.353132248 1.1044737101 0.85065883398 -26.758975983 0.42374381423
          0 0 0 15.233720779 -33.560913086 -0.6004846096
          -1.1451288462 -23.188465118 -0.86993062496 -0.086247935891 -19.533863068 0.019503079355
          2.2301266193 -2.9994320869 -0.43742027879 -1.0493606329 -24.977329254 -0.95718348026
          18.567026138 -33.890602112 -0.31645894051 7.7657780647 -29.759832382 0.55673295259
          15.236177444 -33.584720612 -0.29924687743 2.5685617924 -2.9842135906 -0.037023361772
          -1.406467557 -20.777330399 1.0704015493 -1.0435596704 -23.414861679 -0.43303313851
          2.5785253048 -9.4538269043 -1.8023597002 2.7790389061 -29.660596848 -0.70710074902
          1.9652373791 -12.644817352 -0.83325105906 -0.64620578289 -24.345487595 0.97667318583
          1.8152846098 -15.56700325 1.5018684864 4.8317770958 -29.596252441 0.29343339801
          -0.96636378765 -25.039842606 -0.48327478766 1.6239379644 -15.693815231 0.73996579647
          2.8212416172 -29.61510849 -0.34692010283 11.903717041 -33.284553528 -0.56664633751
          18.569026947 -33.898262024 5.7290201028e-08 3.5526599884 -4.9765701294 1.303434968
          0 0 0 11.910195351 -33.303592682 -0.2821443975
          3.6563878059 -4.7312474251 0.68397408724 15.237645149 -33.591697693 1.630315154e-07
          -0.10609266907 -27.177213669 -0.87375110388 -1.0372357368 -23.428783417 3.7636476691e-07
          -0.95732605457 -25.045217514 4.7815774451e-07 -0.093385346234 -21.362691879 -0.038047336042
          2.4797918797 -3.0543887615 -1.9254503059e-07 -0.040754955262 -27.180648804 -0.44269442558
          2.8386378288 -29.612054825 5.0504661431e-07 -0.089146435261 -21.832941055 -0.018828228116
          1.5866682529 -15.670940399 -1.2263613769e-07 0.79513573647 -26.801197052 0.84937095642
          11.912853241 -33.308784485 2.7019501658e-07 -0.092151381075 -19.011104584 0.03980242461
          3.6372425556 -4.6877183914 -4.0233874188e-07 8.6168718338 -33.047702789 -0.54436737299
          18.567026138 -33.890602112 0.31645902991 -0.028447490185 -27.17719841 5.3799215038e-07
          3.1766347885 -7.9215269089 1.523426652 2.1539916992 -12.600279808 -1.6900935173
          -0.088368430734 -21.839941025 2.160407746e-07 4.8156294823 -29.622425079 0.59097915888
          0 0 0 8.6269617081 -33.055076599 -0.27170586586
          3.1543736458 -7.746366024 0.77705466747 15.236177444 -33.584720612 0.29924720526
          -1.043559432 -23.414861679 0.43303391337 -0.96636360884 -25.039842606 0.48327574134
          2.5685617924 -2.984213829 0.037022940814 2.8212418556 -29.61510849 0.34692111611
          1.6239380836 -15.693816185 -0.73996603489 11.910195351 -33.303596497 0.28214493394
          8.6299343109 -33.058364868 3.7585405721e-07 1.4684685469 -29.81546402 -0.77175986767
          1.5429657698 -18.300792694 1.2816801071 3.1274716854 -7.711417675 -3.5481826899e-07
          3.6563880444 -4.7312474251 -0.6839749217 1.3727122545 -18.490222931 0.63147830963
          -0.04075473547 -27.180648804 0.44269549847 1.5238558054 -29.794118881 -0.38681337237
          -0.089146241546 -21.832942963 0.0188286677 5.6024508476 -32.881523132 -0.56676602364
          18.565561295 -33.866359711 0.63426554203 0 0 0
          2.7455985546 -11.033408165 1.5388846397 5.6206307411 -32.865600586 -0.28151354194
          15.233720779 -33.560916901 0.60048490763 2.678681612 -10.90415287 0.7791044116
          -1.1451284885 -23.188465118 0.86993134022 1.5393563509 -29.78827095 5.6756812228e-07