<?xml version="1.0"?>
<VTKFile type="UnstructuredGrid" version="0.1" byte_order="LittleEndian" header_type="UInt32" compressor="vtkZLibDataCompressor">
  <UnstructuredGrid>
    <Piece NumberOfPoints="6405" NumberOfCells="4800">
      <PointData>
        <DataArray type="Float32" Name="DISPLACEMENT" NumberOfComponents="3" ComponentName0="X-DISPLACEMENT" ComponentName1="Y-DISPLACEMENT" ComponentName2="Z-DISPLACEMENT" format="ascii" RangeMin="0" RangeMax="341.13708479">
          0 0 0 0 0 0
          2.7088880539 -1.6029833555 -1.2413502932 0 0 0
          1.6192260981 -0.91383802891 -0.86957865953 0 0 0
          2.4888350964 -1.8192396164 -0.4882850945 1.4144006968 -1.0977742672 -0.35475751758
          0 0 0 4.8968629837 -3.241537571 -1.2581883669
          0 0 0 4.8372330666 -3.4873666763 -0.64209312201
          3.2337152958 -2.7188825607 -0.96438127756 0 0 0
          0 0 0 2.502014637 -1.8823263645 -2.0024506497e-08
          0.93451112509 -0.59774690866 -0.55000245571 1.4100868702 -1.1283144951 -5.152010818e-09
          3.1655819416 -2.9198246002 -0.49122771621 0.79076778889 -0.77261942625 -0.2301377058
          4.7857131958 -3.5530564785 -3.646120561e-08 1.8864570856 -2.339993 -0.66401565075
          0 0 0 3.1248209476 -2.9803688526 -9.7017265333e-09
          1.8059170246 -2.5197482109 -0.34254693985 0 0 0
          6.816901207 -5.4817242622 -1.1510643959 0 0 0
          0.78471362591 -0.79805362225 1.0294746389e-08 0 0 0
          0 0 0 2.4888350964 -1.8192396164 0.4882850647
          4.7255735397 -5.0033226013 -0.92689538002 6.8430051804 -5.6548061371 -0.58427339792
          0.15694350004 -0.4949618578 -0.20748007298 1.4144006968 -1.0977742672 0.35475751758
          4.742046833 -5.1638541222 -0.47153240442 0.03950573504 -0.68256247044 -0.10907357186
          1.7759039402 -2.5710215569 1.7721095702e-08 4.8372330666 -3.4873666763 0.6420930624
          0 0 0 0 0 0
          0.48420524597 -2.1526515484 -0.39479365945 2.9447319508 -4.6596164703 -0.71880090237
          6.8239002228 -5.7141752243 -5.2741789602e-08 3.1655819416 -2.9198246002 0.49122771621
          2.9206557274 -4.8033280373 -0.36487665772 0.79076778889 -0.77261942625 0.23013773561
          4.7317972183 -5.2151675224 -1.4449666352e-08 0.39062893391 -2.3199818134 -0.210080266
          0.019264280796 -0.71344542503 2.8271662345e-08 0 0 0
          8.5178432465 -8.0300741196 -0.99897152185 0 0 0
          6.1318430901 -7.6038866043 -0.85370868444 1.8059170246 -2.5197484493 0.34254696965
          8.5714960098 -8.1444187164 -0.50614064932 2.7088880539 -1.6029834747 1.2413502932
          0 0 0 0 0 0
          0.36937108636 -2.3706507683 4.7074358633e-08 2.9108102322 -4.848845005 2.4052200231e-08
          -0.54451215267 -0.66102463007 0.041648130864 6.1761851311 -7.7147097588 -0.4302624166
          1.6192260981 -0.91383808851 0.86957859993 1.1342335939 -4.4331951141 -0.54137861729
          0 0 0 6.8430051804 -5.6548061371 0.58427327871
          -0.66061466932 -0.83808040619 -0.0024339107331 1.0842759609 -4.5571885109 -0.27304211259
          4.742046833 -5.1638541222 0.47153237462 0.039505720139 -0.68256253004 0.10907362401
          4.0426568985 -7.2809596062 -0.71737325191 -0.64402228594 -2.2137262821 -0.24842315912
          8.570526123 -8.1841669083 -6.7782941926e-08 4.8968629837 -3.241537571 1.2581883669
          0 0 0 0 0 0
          4.0526885986 -7.3819241524 -0.36099144816 3.2337152958 -2.7188827991 0.96438127756
          6.1829977036 -7.7528319359 -1.9834750731e-08 -0.74210894108 -2.3432865143 -0.11861345917
          0.93451112509 -0.59774696827 0.55000251532 -0.68680894375 -0.89176422358 5.4298695318e-08
          1.0739591122 -4.5982255936 6.519427842e-08 2.9206557274 -4.8033285141 0.36487668753
          0.39062893391 -2.3199820518 0.21008035541 4.0540513992 -7.4172873497 2.8331781365e-08
          1.8864570856 -2.3399932384 0.66401571035 -0.74784809351 -2.3993265629 8.7000600502e-08
          2.0070178509 -7.0448031425 -0.60545217991 8.5714960098 -8.1444187164 0.5061404705
          6.816901207 -5.4817242622 1.1510642767 0 0 0
          10.020606995 -10.750603676 -0.8738334775 0 0 0
          0 0 0 -0.33932346106 -4.3866081238 -0.41461676359
          1.9953653812 -7.1314873695 -0.29998198152 10.074359894 -10.824250221 -0.44000256062
          7.4415464401 -10.361556053 -0.77921414375 6.1761851311 -7.7147097588 0.4302623868
          -1.4496532679 -0.94515198469 0.22800113261 0 0 0
          4.7255730629 -5.0033226013 0.92689538002 0.15694350004 -0.4949619174 0.20748011768
          -0.38721382618 -4.4838328362 -0.20529307425 -0.66061472893 -0.83808040619 0.0024340134114
          -1.6281657219 -1.0832879543 0.058434423059 1.0842759609 -4.5571885109 0.2730422318
          7.4893264771 -10.436781883 -0.3900295198 4.0526885986 -7.3819241524 0.36099150777
          1.9922568798 -7.1619129181 7.9894249438e-08 10.081971169 -10.850733757 -8.1903436921e-08
          -1.8117128611 -2.4518353939 -0.23652838171 -0.74210900068 -2.3432865143 0.11861363798
          0 0 0 5.1277394295 -10.053576469 -0.68542182446
          0.48420524597 -2.1526515484 0.39479374886 2.9447319508 -4.6596164703 0.71880096197
          -0.39030095935 -4.522503376 1.1511810527e-07 7.501224041 -10.462940216 -2.6270081221e-08
          -1.6515084505 -1.1419966221 9.7989001802e-08 -1.9240335226 -2.5019443035 -0.10145032406
          5.1523332596 -10.124253273 -0.3427323997 8.5178432465 -8.0300741196 0.99897134304
          0 0 0 0.19466263056 -6.923181057 -0.4848267138
          6.1318430901 -7.6038870811 0.85370868444 -1.9216256142 -2.549277544 1.4095681422e-07
          0.17553414404 -6.9988708496 -0.24492415786 5.1583061218 -10.148760796 2.9602471585e-08
          -0.54451215267 -0.66102468967 -0.041648030281 1.9953653812 -7.1314873695 0.29998213053
          2.9294922352 -9.8241376877 -0.60096698999 10.074359894 -10.824250221 0.4400024116
          -1.6408063173 -4.5825204849 -0.41846561432 1.1342335939 -4.4331951141 0.5413787961
          0 0 0 -0.38721382618 -4.4838328362 0.20529331267
          2.9370810986 -9.8860807419 -0.29866492748 -1.6281657219 -1.0832880735 -0.058434233069
          -1.6987359524 -4.6167650223 -0.18973834813 7.4893264771 -10.436782837 0.39002946019
          4.0426568985 -7.280960083 0.71737331152 -0.64402228594 -2.2137262821 0.24842333794
          11.368943214 -13.56560421 -0.78115230799 0 0 0
          0.17456912994 -7.0237312317 1.3705518143e-07 8.657708168 -13.206110001 -0.71448588371
          11.413795471 -13.616229057 -0.39151132107 0 0 0
          -2.3794219494 -1.3250149488 0.3050648272 8.6989936829 -13.259575844 -0.35617130995
          2.9378039837 -9.9065580368 8.8742346804e-08 -2.5760514736 -1.4122675657 0.076408669353
          -1.9240335226 -2.5019443035 0.10145060718 -1.6946537495 -4.6526155472 1.7372515515e-07
          5.1523332596 -10.124253273 0.34273245931 6.1649956703 -12.913860321 -0.64292633533
          -2.888381958 -2.7939670086 -0.37922051549 11.423443794 -13.634232521 -9.5772563213e-08
          0 0 0 -3.019605875 -2.7370855808 -0.16100804508
          6.1913304329 -12.964713097 -0.32011032104 8.7107419968 -13.277629852 -3.4263127446e-08
          -2.4741461277 -1.508508563 1.6074396569e-07 2.0070178509 -7.0448031425 0.60545235872
          0.83523184061 -9.6896877289 -0.5165553689 10.020606041 -10.750603676 0.87383329868
          0 0 0 -1.2634986639 -7.0767912865 -0.51105487347
          0.17553414404 -6.9988708496 0.24492444098 -0.33932343125 -4.3866081238 0.41461700201
          7.4415464401 -10.361557007 0.77921408415 -1.4496531487 -0.9451521039 -0.22800095379
          -1.3015590906 -7.0939669609 -0.23663233221 0.82603424788 -9.7390346527 -0.26034599543
          2.9370810986 -9.8860816956 0.2986651063 -1.6987359524 -4.6167650223 0.18973870575
          6.1982512474 -12.98076725 2.7363137534e-08 -3.0110859871 -2.7652802467 2.0118336863e-07
          3.8044507504 -12.708117485 -0.57554489374 -2.618001461 -5.0065193176 -0.59483110905
          -1.8117128611 -2.4518353939 0.23652867973 11.413795471 -13.616229057 0.39151111245
          5.1277394295 -10.053577423 0.68542188406 0 0 0
          0.8262553215 -9.7559652328 1.5173365853e-07 -1.293823719 -7.1222305298 1.9800766893e-07
          3.8162331581 -12.748470306 -0.28731888533 8.6989936829 -13.259575844 0.35617125034
          -2.7051079273 -4.93359375 -0.26137065887 -2.5760514736 -1.4122675657 -0.076408363879
          0.19466264546 -6.9231815338 0.48482698202 3.8187897205 -12.761494637 9.1664752233e-08
          6.1913304329 -12.964713097 0.32011038065 -3.0196061134 -2.7370855808 0.16100844741
          -2.6930618286 -4.9535393715 2.3267303106e-07 12.602694511 -16.447734833 -0.71541386843
          0 0 0 12.636761665 -16.4856987 -0.3573692739
          2.9294922352 -9.8241376877 0.60096716881 9.7908239365 -16.112251282 -0.66363292933
          -1.6408063173 -4.5825204849 0.41846597195 -0.76637428999 -9.8294620514 -0.58549726009
          -0.92575955391 -1.9814609289 0.47946587205 -1.3015590906 -7.0939669609 0.23663273454
          0.82603424788 -9.7390346527 0.26034629345 0 0 0
          9.8225841522 -16.152788162 -0.33003985882 -0.79216396809 -9.8173484802 -0.27493712306
          -0.93200802803 -2.0231616497 0.17752490938 1.5130326748 -12.599204063 -0.53855288029
          -2.1981756687 -7.5655622482 -0.74484908581 11.368943214 -13.56560421 0.78115212917
          0 0 0 8.657708168 -13.206110001 0.71448582411
          12.645414352 -16.498752594 -1.0993070276e-07 -2.2549834251 -7.4666604996 -0.33491167426
          1.5074288845 -12.618783951 -0.26906597614 -2.3794219494 -1.3250150681 -0.30506452918
          7.1434073448 -15.837458611 -0.60541379452 -2.2874734402 -3.4405627251 0.100976713
          0 0 0 3.8162331581 -12.748470306 0.28731906414
          -2.7051079273 -4.93359375 0.26137113571 9.832233429 -16.165641785 -4.4072365313e-08
          -0.78125965595 -9.8379840851 2.1416124696e-07 7.1652965546 -15.874456406 -0.30044409633
          -2.4859158993 -3.5298552513 -0.030457094312 -0.97290331125 -2.0540049076 1.4385055636e-07
          6.1649956703 -12.913861275 0.64292639494 -2.888381958 -2.793967247 0.37922096252
          1.5080521107 -12.629901886 1.590272376e-07 -2.2366423607 -7.4820055962 2.5548442295e-07
          0.83523184061 -9.6896877289 0.51655566692 7.1716828346 -15.884644508 2.1824430263e-08
          -2.3876302242 -3.5121819973 2.4946072585e-07 -1.2634986639 -7.0767912865 0.5110552907
          12.636761665 -16.4856987 0.35736903548 4.6137003899 -15.65580368 -0.55358034372
          0 0 0 -3.3249509335 -5.5533056259 -0.81454885006
          4.6240344048 -15.677494049 -0.27680596709 9.8225841522 -16.152788162 0.33003976941
          -0.93200808764 -2.0231616497 -0.17752464116 -0.79216396809 -9.8173484802 0.27493754029
          -3.4220337868 -5.413752079 -0.40046584606 3.8044507504 -12.708117485 0.57554507256
          -0.19912928343 -12.757813454 -0.65006321669 1.5074288845 -12.618783951 0.26906630397
          -2.618001461 -5.0065197945 0.59483158588 -2.2549834251 -7.4666604996 0.3349122107
          -1.7081489563 -10.369138718 -0.8531114459 -0.20951893926 -12.716463089 -0.30870398879
          4.6271247864 -15.684768677 8.9560266758e-08 7.1652965546 -15.874457359 0.30044415593
          -2.4859161377 -3.5298554897 0.030457612127 -1.7266740799 -10.254396439 -0.3933879137
          -3.419942379 -5.3942480087 3.0346348012e-07 13.752605438 -19.386325836 -0.67004114389
          0 0 0 -0.6584277153 -2.3938360214 0.34561890364
          -0.19569420815 -12.729776382 2.218983326e-07 2.1890721321 -15.578765869 -0.55465471745
          10.856933594 -19.069450378 -0.62712210417 12.602694511 -16.44773674 0.71541363001
          0 0 0 0 0 0
          -1.7044637203 -10.262591362 2.7113233614e-07 -2.9024820328 -8.2045402527 -0.99623525143
          13.776504517 -19.416988373 -0.33412438631 2.1868467331 -15.572616577 -0.27586653829
          10.879248619 -19.101869583 -0.31155523658 9.7908239365 -16.112253189 0.66363281012
          -0.67151433229 -2.3753874302 0.1583071053 -0.76637423038 -9.8294620514 0.58549773693
          -0.92575955391 -1.9814610481 -0.47946566343 -2.9390997887 -8.0450429916 -0.49438792467
          4.6240344048 -15.677494049 0.27680614591 -3.4220337868 -5.413752079 0.40046647191
          8.0729150772 -18.807832718 -0.5785036087 1.5130326748 -12.599205017 0.53855323792
          -2.1981756687 -7.5655622482 0.74484962225 0 0 0
          -1.4607198238 -4.3536434174 0.20680193603 13.783100128 -19.427131653 -1.2546158246e-07
          -0.69463455677 -2.3928482533 1.3736867288e-07 2.1879057884 -15.578502655 1.5941111542e-07
          8.0889291763 -18.83524704 -0.28661707044 7.1434073448 -15.837458611 0.60541379452
          10.886381149 -19.111499786 -5.634727529e-08 -2.2874734402 -3.4405627251 -0.10097619891
          -2.9344358444 -8.0182743073 3.2740445022e-07 -1.6290575266 -4.3917469978 0.09191724658
          -0.20951889455 -12.716463089 0.30870446563 -1.7266740799 -10.254396439 0.39338847995
          -1.2020417452 -13.317392349 -0.90151810646 8.0942497253 -18.841753006 1.2931157478e-08
          -1.6617643833 -4.4143490791 2.7225260624e-07 -1.187245965 -13.206823349 -0.42675295472
          5.3805561066 -18.636360168 -0.53976917267 0 0 0
          -2.6482207775 -6.3188419342 -0.32156163454 13.776504517 -19.416988373 0.33412414789
          -0.6715143919 -2.3753874302 -0.15830685198 2.1868467331 -15.572616577 0.27586686611
          5.3888783455 -18.645290375 -0.26969394088 4.6137003899 -15.655804634 0.55358052254
          10.879248619 -19.101869583 0.31155514717 0.38885307312 -15.761001587 -0.6908017993
          -2.4157044888 -11.087948799 -1.0829719305 -3.3249509335 -5.5533061028 0.81454950571
          -2.8968834877 -6.4070382118 -0.28743258119 -2.9390997887 -8.0450429916 0.49438861012
          0.39454543591 -15.70145607 -0.33153119683 -2.4050102234 -10.941193581 -0.54036694765
          -1.1631528139 -13.207897186 2.7746546039e-07 -0.19912923872 -12.757813454 0.65006369352
          8.0889291763 -18.83524704 0.28661710024 -1.7081488371 -10.369138718 0.85311198235
          5.3920297623 -18.648443222 8.3227909897e-08 -1.6290576458 -4.3917469978 -0.091916725039
          -2.8232908249 -6.36810112 3.6854160612e-07 0.41008508205 -15.708054543 2.216175119e-07
          -2.3920023441 -10.912334442 3.3829263657e-07 -3.4165382385 -8.9558773041 -1.2218390703
          2.8483223915 -18.575906754 -0.56215578318 13.752605438 -19.386325836 0.67004090548
          0 0 0 -1.187245965 -13.206823349 0.42675352097
          -0.6584276557 -2.3938360214 -0.34561866522 -3.4449346066 -8.791967392 -0.63143002987
          2.1890721321 -15.578766823 0.55465501547 10.856933594 -19.069450378 0.62712198496
          2.8501312733 -18.553413391 -0.27956661582 14.843411446 -22.374078751 -0.64066267014
          0 0 0 -2.9024817944 -8.2045412064 0.99623596668
          14.858600616 -22.400482178 -0.31932395697 -0.3582970202 -2.6473860741 0.20289494097
          11.875041008 -22.069612503 -0.60330104828 5.3888783455 -18.645290375 0.26969408989
          0 0 0 -2.8968837261 -6.4070382118 0.28743332624
          11.889255524 -22.097003937 -0.29973223805 -0.35339400172 -2.6021072865 0.091986693442
          0.39454549551 -15.70145607 0.33153164387 -2.4050102234 -10.941193581 0.5403676033
          8.0729141235 -18.807832718 0.57850366831 -3.4316196442 -8.7500972748 4.0764990672e-07
          2.8517971039 -18.554868698 1.5423951538e-07 -1.4607197046 -4.3536434174 -0.206801489
          -0.71260714531 -16.294868469 -0.89927911758 -0.80975818634 -4.9424138069 0.14920389652
          8.97286129 -21.813573837 -0.56169450283 -1.9398462772 -14.082564354 -1.0939099789
          14.863130569 -22.408987045 -1.4370799306e-07 0 0 0
          -0.67912662029 -16.197746277 -0.43483778834 11.894083023 -22.104799271 -7.1797785495e-08
          -0.37188798189 -2.6158788204 1.1790940135e-07 8.9837036133 -21.835199356 -0.27829602361
          -0.90482217073 -4.945543766 0.089878931642 -1.9014195204 -13.960618973 -0.54631650448
          -1.202041626 -13.317392349 0.90151870251 -0.65500724316 -16.193145752 2.7454854035e-07
          -2.8960597515 -11.968548775 -1.3091237545 -3.4449346066 -8.791967392 0.63143080473
          0.97245538235 -18.761434555 -0.70295476913 8.9878816605 -21.839845657 6.3562521913e-10
          5.3805556297 -18.636360168 0.53976935148 2.8501312733 -18.553413391 0.27956694365
          -1.8814662695 -13.936479568 3.3503826558e-07 -0.93561810255 -4.9660773277 2.4276820909e-07
          -2.6482210159 -6.318842411 0.3215624094 14.858600616 -22.400482178 0.31932365894
          6.1361489296 -21.636510849 -0.53199726343 -2.8691046238 -11.815436363 -0.66342830658
          -1.4445683956 -7.1400089264 0.025291124359 0.98993128538 -18.695362091 -0.34063649178
          0.38885313272 -15.761001587 0.69080227613 -2.4157044888 -11.087948799 1.0829726458
          0 0 0 -1.6791385412 -7.2904157639 -0.086516536772
          11.889255524 -22.097003937 0.29973208904 -0.35339400172 -2.6021072865 -0.091986469924
          6.1431007385 -21.639396667 -0.26538455486 -2.8470094204 -11.780379295 3.9809165742e-07
          1.0059409142 -18.696033478 2.1533872996e-07 -0.67912656069 -16.197746277 0.43483835459
          6.1461834908 -21.640378952 7.3317053761e-08 -1.6820715666 -7.3196544647 3.5479291682e-07
          8.9837036133 -21.835199356 0.27829602361 -0.90482223034 -4.945543766 -0.089878462255
          -1.9014194012 -13.960619926 0.54631716013 -3.4165382385 -8.9558782578 1.2218399048
          2.8483223915 -18.575906754 0.5621560812 3.499153614 -21.570796967 -0.56152421236
          14.843411446 -22.374078751 0.64066243172 0 0 0
          -2.7588686943 -10.003249168 -1.1606148481 -0.35829693079 -2.6473860741 -0.20289471745
          11.875041008 -22.069612503 0.60330092907 -2.8691043854 -11.815436363 0.66342914104
          0.98993134499 -18.695362091 0.34063693881 3.5045456886 -21.541778564 -0.27943667769
          -1.5075691938 -17.048276901 -1.0580998659 -2.8451454639 -10.020607948 -0.6518907547
          -1.6791385412 -7.2904157639 0.086517244577 6.1431007385 -21.639396667 0.26538470387
          -1.4563714266 -16.949678421 -0.52852541208 -0.2327529341 -19.233110428 -0.86966603994
          -2.391876936 -15.0518713 -1.3011081219 15.896916389 -25.405437469 -0.62441074848
          0 0 0 12.863534927 -25.10741806 -0.58974659443
          -0.7126070261 -16.294868469 0.89927971363 -0.80975812674 -4.9424138069 -0.14920346439
          8.97286129 -21.813573837 0.56169450283 -2.3313660622 -14.927563667 -0.65235298872
          -0.19210107625 -19.149183273 -0.42639067769 -1.939846158 -14.082564354 1.0939105749
          15.905092239 -25.429992676 -0.31129410863 0 0 0
          -2.7586560249 -9.9835786819 4.3679793293e-07 3.5068516731 -21.540464401 1.4511526558e-07
          -0.041056141257 -2.7420535088 0.030700318515 12.871344566 -25.132377625 -0.29322203994
          -0.033623944968 -2.6854634285 0.013529330492 -1.4334352016 -16.931070328 3.215154436e-07
          9.8607463837 -24.85043335 -0.55234390497 -2.3041174412 -14.902246475 3.7431425426e-07
          -0.169390589 -19.139984131 2.6531023423e-07 15.907972336 -25.437810898 -1.6667324587e-07
          0 0 0 -0.073111250997 -5.1261034012 0.039095532149
          9.8677272797 -24.869663239 -0.27397245169 12.874300003 -25.139432907 -9.1827331516e-08
          -2.8960597515 -11.968549728 1.3091244698 0.97245544195 -18.761434555 0.70295518637
          -0.033888921142 -2.6971402168 9.0320810386e-08 -0.071116067469 -5.1250925064 0.020387150347
          6.1361489296 -21.636510849 0.53199738264 -1.4445683956 -7.1400089264 -0.025290520862
          -2.6585299969 -13.236470222 -1.6299507618 1.5563255548 -21.733779907 -0.69498610497
          -2.8451457024 -10.020607948 0.65189170837 3.5045456886 -21.541778564 0.27943697572
          -2.5401945114 -13.124670029 -0.79845893383 1.5805221796 -21.669094086 -0.339068681
          -1.4563714266 -16.949678421 0.52852606773 9.8708677292 -24.873882294 -1.5853769852e-08
          -0.070645742118 -5.1485185623 1.8962030879e-07 6.9025411606 -24.658025742 -0.52721530199
          -2.3313660622 -14.927564621 0.65235376358 -0.19210100174 -19.149183273 0.42639121413
          15.905092239 -25.429992676 0.3112937808 0 0 0
          -0.10923413187 -7.5676107407 0.038471378386 6.9087247849 -24.660259247 -0.26269632578
          12.871344566 -25.132377625 0.29322186112 -0.11255603284 -7.6826925278 0.020471449941
          -2.4966926575 -13.088097572 3.9967531507e-07 1.596472621 -21.66558075 2.0524393562e-07
          -0.033623948693 -2.6854634285 -0.013529155403 9.8677272797 -24.869665146 0.27397239208
          6.9115986824 -24.66094017 5.9892592219e-08 -0.11375220865 -7.7393460274 2.7539431358e-07
          3.499153614 -21.570796967 0.56152451038 -1.1054893732 -19.911903381 -1.0000610352
          -0.07111608237 -5.1250925064 -0.020386781543 -2.7588691711 -10.003249168 1.1606158018
          -1.964961648 -18.029165268 -1.2378371954 -1.049651742 -19.831888199 -0.50001233816
          -1.5075691938 -17.048276901 1.058100462 -1.8849226236 -17.937156677 -0.61747848988
          -2.5401945114 -13.124670982 0.7984597683 1.5805221796 -21.669094086 0.33906909823
          -0.23275285959 -19.233110428 0.86966657639 -2.391876936 -15.0518713 1.3011089563
          -0.14500929415 -10.291079521 0.027455914766 4.1606707573 -24.56927681 -0.5553008914
          15.896916389 -25.405437469 0.62441045046 0 0 0
          12.863534927 -25.10741806 0.58974641562 -0.15878121555 -10.667702675 0.0053356937133
          -1.0278517008 -19.81567955 3.0318085464e-07 -2.1480743885 -16.36469841 -1.5300499201
          0.2652695179 -22.122337341 -0.82917308807 4.1686835289 -24.541053772 -0.27628481388
          -0.041056066751 -2.7420535088 -0.030700145289 -1.8573291302 -17.919750214 3.4344034816e-07
          6.9087247849 -24.660259247 0.26269641519 -0.11255609244 -7.6826925278 -0.020470922813
          0.30759912729 -22.050527573 -0.40975701809 -1.9848964214 -16.329860687 -0.74528431892
          9.8607463837 -24.85043335 0.55234390497 -0.15344145894 -10.598240852 3.2473752754e-07
          4.1714081764 -24.539011002 1.3330323156e-07 -0.073111183941 -5.1261034012 -0.039095193148
          0.32814997435 -22.038238525 2.5266939474e-07 16.93223381 -28.478761673 -0.6188634038
          0 0 0 -1.9450876713 -16.297792435 3.5539716237e-07
          16.935110092 -28.503768921 -0.30868220329 0 0 0
          -1.0496516228 -19.831888199 0.50001293421 13.837488174 -28.18239975 -0.58394110203
          -2.6585299969 -13.236470222 1.6299515963 1.5563255548 -21.733779907 0.6949865222
          0.2799013257 -2.6415717602 -0.14146307111 -1.8849226236 -17.937156677 0.61747914553
          13.84058857 -28.207386017 -0.29066383839 0.28798171878 -2.5921330452 -0.065898358822
          6.9025406837 -24.658025742 0.5272154212 16.936841965 -28.511737823 -1.9713046129e-07
          -0.15878134966 -10.667702675 -0.0053350469097 10.747701645 -27.920679092 -0.54765290022
          0.66440725327 -4.9280185699 -0.080158360302 4.1686835289 -24.541053772 0.2762850821
          0 0 0 2.1602365971 -24.686500549 -0.67670637369
          -0.19879895449 -14.366648674 -0.054229214787 -0.10923416167 -7.5676107407 -0.038470897824
          0.76341789961 -4.9248042107 -0.052311688662 10.752188683 -27.940450668 -0.27207422256
          13.842153549 -28.214632034 -1.1853693849e-07 0.3075991869 -22.050527573 0.40975752473
          -0.19019597769 -14.909849167 -0.025420844555 2.1880583763 -24.627933502 -0.33130416274
          -1.9848964214 -16.329860687 0.74528509378 0.3059232235 -2.6045198441 6.0376549982e-08
          -1.6010279655 -20.813943863 -1.1418019533 10.754494667 -27.945322037 -3.7997331503e-08
          -1.1054893732 -19.911903381 1.0000616312 0.79591965675 -4.9431753159 1.2398167826e-07
          -0.18676771224 -14.764740944 3.1770798614e-07 -1.5134325027 -20.755506516 -0.56831020117
          2.2036979198 -24.622591019 1.9379808691e-07 -1.964961648 -18.029165268 1.2378379107
          16.935110092 -28.503768921 0.30868181586 7.6887631416 -27.709892273 -0.52282494307
          -1.7458159924 -19.282808304 -1.3487831354 0 0 0
          1.2503753901 -7.1297359467 0.049326449633 -0.68978410959 -22.68085289 -0.93172413111
          1.4774956703 -7.2675738335 0.11830944568 7.6947851181 -27.715221405 -0.26044023037
          13.84058857 -28.207386017 0.29066359997 -1.5745315552 -19.324869156 -0.65641123056
          -0.63365364075 -22.618606567 -0.46682012081 0.28798171878 -2.5921330452 0.065898478031
          -0.14500945807 -10.291079521 -0.027455339208 4.1606702805 -24.56927681 0.55530118942
          -1.490259409 -20.742084503 3.117689289e-07 -2.1480743885 -16.36469841 1.5300506353
          0.2652695775 -22.122337341 0.82917362452 7.6973252296 -27.717000961 4.2391668842e-08
          10.752188683 -27.940450668 0.27207413316 -1.542096734 -19.299577713 3.1124770317e-07
          0.76341789961 -4.9248042107 0.052311934531 1.4820994139 -7.2970972061 1.6600594677e-07
          -0.1901961267 -14.909849167 0.025421496481 2.1880583763 -24.627933502 0.33130455017
          -0.61542391777 -22.603151321 2.8386261874e-07 0.80877572298 -24.976976395 -0.7849868536
          -0.18998968601 -17.39535141 -0.062884792686 0.85108304024 -24.918523788 -0.38964787126
          -0.1785928607 -17.921478271 -0.029722655192 16.932231903 -28.478761673 0.61886304617
          0 0 0 -1.5134325027 -20.755506516 0.56831085682
          2.485888958 -9.9670133591 1.1875290871 4.8486738205 -27.58817482 -0.54455381632
          2.5781748295 -9.9934835434 0.6728861928 13.837488174 -28.18239975 0.583940804
          0.27990138531 -2.6415717602 0.14146319032 4.8589296341 -27.565473557 -0.27079984546
          7.6947851181 -27.715221405 0.26044028997 -1.5745315552 -19.324869156 0.65641188622
          1.4774955511 -7.2675738335 -0.11830913275 -0.63365358114 -22.618606567 0.46682068706
          0.86905473471 -24.905546188 2.3960890871e-07 -0.17528904974 -17.815916061 2.8131054819e-07
          10.747701645 -27.920681 0.54765278101 0.66440731287 -4.9280185699 0.08015858382
          2.1602368355 -24.686500549 0.67670673132 2.4882743359 -9.9530286789 1.5695613342e-07
          -0.19879923761 -14.366648674 0.054229870439 4.8617048264 -27.56444931 1.1956954893e-07
          17.964933395 -31.597452164 -0.62159025669 0 0 0
          -1.6010278463 -20.81394577 1.1418025494 0.85108309984 -24.918523788 0.38964834809
          0 0 0 14.807780266 -31.299381256 -0.58352833986
          -1.4339458942 -21.909296036 -1.1352084875 -0.17859297991 -17.921478271 0.029723223299
          0.58221250772 -2.3772983551 -0.29309627414 -1.2442662716 -23.426715851 -1.0242558718
          17.964130402 -31.625085831 -0.31021881104 7.6887626648 -27.70989418 0.52282500267
          14.807738304 -31.326688766 -0.29081639647 0.60538691282 -2.3511989117 -0.13515512645
          -1.7458159924 -19.282808304 1.3487837315 -1.281354785 -22.01401329 -0.55285435915
          1.2503753901 -7.1297359467 -0.049326147884 2.8062233925 -27.639062881 -0.65162336826
          2.5781745911 -9.9934835434 -0.67288595438 -0.68978404999 -22.68085289 0.93172466755
          2.4302492142 -13.245672226 1.7002665997 4.8589296341 -27.565473557 0.27080008388
          -1.1595455408 -23.404083252 -0.51021897793 2.2962324619 -13.136541367 0.83377283812
          2.8371212482 -27.589918137 -0.31965789199 11.638890266 -31.031452179 -0.54527568817
          17.965179443 -31.633962631 -2.3804371097e-07 1.3328437805 -4.3321995735 -0.14232449234
          0 0 0 11.642131805 -31.054296494 -0.27132001519
          1.4999055862 -4.3533005714 -0.066636815667 14.808373451 -31.334936142 -1.5436366141e-07
          -0.2189732492 -25.389839172 -0.85803067684 -1.2600924969 -21.996740341 2.7275891057e-07
          -1.1439893246 -23.393476486 2.8395089657e-07 -0.18807277083 -20.163627625 -0.064830824733
          0.6279296279 -2.3663079739 3.4789913173e-08 -0.16460999846 -25.349245071 -0.43115267158
          2.8521592617 -27.584981918 1.832495542e-07 -0.17635139823 -20.653049469 -0.030907904729
          2.2510988712 -13.094068527 1.5470202186e-07 0.80877578259 -24.976976395 0.78498733044
          11.643871307 -31.060653687 -6.7581673591e-08 -0.18998990953 -17.39535141 0.06288535893
          1.5363185406 -4.3731918335 6.6533083043e-08 8.4940795898 -30.803382874 -0.51684194803
          17.964130402 -31.625085831 0.3102183342 -0.15096203983 -25.336170197 2.6638213058e-07
          2.4315457344 -6.2615494728 0.33032006025 2.485888958 -9.9670133591 -1.1875289679
          -0.17357183993 -20.587202072 2.4600882398e-07 4.8486733437 -27.58817482 0.54455399513
          0 0 0 8.5006151199 -30.814544678 -0.2575481832
          2.6914415359 -6.3411669731 0.29277074337 14.807738304 -31.326690674 0.29081609845
          -1.2813546658 -22.01401329 0.55285489559 -1.1595455408 -23.404083252 0.51021957397
          0.60538691282 -2.3511989117 0.13515520096 2.8371214867 -27.589920044 0.31965824962
          2.2962324619 -13.136541367 -0.83377254009 11.642131805 -31.054296494 0.27131989598
          8.5028162003 -30.818368912 1.95937222e-08 1.4172879457 -27.814605713 -0.73659962416
          1.9079302549 -16.415546417 1.581567049 2.6294741631 -6.3025865555 8.4731304639e-08
          1.4999055862 -4.3533005714 0.066636949778 1.7263051271 -16.395956039 0.77076232433
          -0.16460992396 -25.349245071 0.43115317822 1.4600462914 -27.772386551 -0.36696389318
          -0.17635147274 -20.653049469 0.03090839833 5.5694298744 -30.64503479 -0.52816581726
          17.964933395 -31.597452164 0.62158977985 0 0 0
          3.2966663837 -8.8647422791 1.2702138424 5.5823407173 -30.631204605 -0.26264384389
          14.807780266 -31.299381256 0.58352804184 3.3312315941 -8.685418129 0.65787529945