<?xml version="1.0"?>
<VTKFile type="UnstructuredGrid" version="0.1" byte_order="LittleEndian" header_type="UInt32" compressor="vtkZLibDataCompressor">
  <UnstructuredGrid>
    <Piece NumberOfPoints="6405" NumberOfCells="4800">
      <PointData>
        <DataArray type="Float32" Name="DISPLACEMENT" NumberOfComponents="3" ComponentName0="X-DISPLACEMENT" ComponentName1="Y-DISPLACEMENT" ComponentName2="Z-DISPLACEMENT" format="ascii" RangeMin="0" RangeMax="333.749706">
          0 0 0 0 0 0
          2.6521368027 -1.5768237114 -1.214056015 0 0 0
          1.5903720856 -0.90263652802 -0.85687035322 0 0 0
          2.4358267784 -1.7841694355 -0.47768458724 1.3880478144 -1.0778797865 -0.34935215116
          0 0 0 4.78596735 -3.1681311131 -1.2299772501
          0 0 0 4.7272043228 -3.402547121 -0.62853807211
          3.1846978664 -2.6560792923 -0.95332598686 0 0 0
          0 0 0 2.4480352402 -1.8450424671 -2.844901914e-08
          0.93321961164 -0.58807009459 -0.55159318447 1.3844511509 -1.1069970131 -5.3450972537e-09
          3.1175961494 -2.846683979 -0.48550957441 0.78896039724 -0.75333654881 -0.22991117835
          4.6766314507 -3.4653944969 -3.7702388767e-08 1.9026323557 -2.2782335281 -0.67096883059
          0 0 0 3.0778625011 -2.90457201 2.8404913976e-09
          1.8236892223 -2.4478936195 -0.34530743957 0 0 0
          6.6584916115 -5.3208904266 -1.1263811588 0 0 0
          0.78495228291 -0.77686369419 1.4939935511e-08 0 0 0
          0 0 0 2.4358267784 -1.7841695547 0.47768452764
          4.6574873924 -4.8518071175 -0.91548442841 6.6846380234 -5.4851408005 -0.5723593235
          0.19773311913 -0.47159260511 -0.22652356327 1.3880478144 -1.0778799057 0.34935215116
          4.6749973297 -5.003967762 -0.46587479115 0.07767881453 -0.64792484045 -0.11614985019
          1.795045495 -2.4967267513 4.0506485277e-08 4.7272043228 -3.4025473595 0.6285379529
          0 0 0 0 0 0
          0.57438921928 -2.0827448368 -0.41981765628 2.9695875645 -4.5104551315 -0.72031521797
          6.6665439606 -5.5420026779 -3.4612458677e-08 3.1175963879 -2.846683979 0.48550957441
          2.9499249458 -4.6468548775 -0.36551091075 0.78896039724 -0.75333660841 0.22991120815
          4.6653108597 -5.0531115532 2.2348519479e-08 0.48426985741 -2.2386085987 -0.22128154337
          0.060173828155 -0.67549908161 3.6181180718e-08 0 0 0
          8.3216905594 -7.7571325302 -0.97863250971 0 0 0
          6.0439620018 -7.3374795914 -0.84048658609 1.8236892223 -2.447893858 0.34530752897
          8.3754386902 -7.8663063049 -0.49602672458 2.6521368027 -1.5768238306 1.2140558958
          0 0 0 0 0 0
          0.46471095085 -2.2866799831 7.7975442991e-08 2.9407753944 -4.6905426979 7.6126866588e-08
          -0.43560409546 -0.61994165182 0.00016389605298 6.089413166 -7.4437289238 -0.42375418544
          1.5903720856 -0.90263664722 0.85687035322 1.2657313347 -4.2778778076 -0.55272680521
          0 0 0 6.6846380234 -5.4851408005 0.5723592639
          -0.54568809271 -0.78400468826 -0.019598746672 1.2243715525 -4.3966522217 -0.27792465687
          4.6749973297 -5.003967762 0.46587482095 0.07767881453 -0.64792490005 0.11614991724
          4.0657720566 -7.0142951012 -0.70954316854 -0.48246583343 -2.1214888096 -0.26948589087
          8.3753156662 -7.9044833183 -1.8917360123e-08 4.78596735 -3.1681313515 1.2299772501
          0 0 0 0 0 0
          4.0799145699 -7.1129713058 -0.35707318783 3.1846978664 -2.6560795307 0.95332604647
          6.0965919495 -7.4805374146 5.1482910379e-08 -0.56651252508 -2.2474095821 -0.13175101578
          0.93321967125 -0.58807021379 0.55159324408 -0.56798261404 -0.83437407017 6.37801989e-08
          1.2153972387 -4.4357728958 1.3108294183e-07 2.9499249458 -4.6468553543 0.36551105976
          0.48426988721 -2.2386088371 0.22128170729 4.0816855431 -7.147395134 1.1938608679e-07
          1.9026324749 -2.2782337666 0.67096894979 -0.5712749362 -2.2998919487 1.2629195112e-07
          2.1503224373 -6.7709083557 -0.59504711628 8.3754386902 -7.8663067818 0.49602669477
          6.6584916115 -5.3208904266 1.1263810396 0 0 0
          9.79550457 -10.356848717 -0.85604614019 0 0 0
          0 0 0 -0.15765036643 -4.2024178505 -0.40532040596
          2.1457436085 -6.859954834 -0.29515826702 9.8492908478 -10.427877426 -0.43100470304
          7.33425951 -9.9724836349 -0.76454406977 6.089413166 -7.4437294006 0.42375427485
          -1.3160842657 -0.87320399284 0.18083889782 0 0 0
          4.6574873924 -4.8518075943 0.91548448801 0.19773316383 -0.47159266472 0.22652363777
          -0.19393439591 -4.3055377007 -0.20415405929 -0.54568809271 -0.78400474787 0.019598871469
          -1.4788054228 -1.0031411648 0.038429811597 1.2243715525 -4.3966526985 0.27792492509
          7.3824424744 -10.045773506 -0.38275361061 4.0799145699 -7.1129713058 0.35707345605
          2.1438937187 -6.8898181915 1.8981113215e-07 9.8572921753 -10.453482628 7.9117494778e-09
          -1.631131053 -2.3204631805 -0.21626020968 -0.56651246548 -2.2474095821 0.131751284
          0 0 0 5.141500473 -9.6629734039 -0.67121380568
          0.57438933849 -2.0827448368 0.41981783509 2.9695878029 -4.5104551315 0.72031533718
          -0.19649752975 -4.3419337273 1.9550442687e-07 7.394505024 -10.071269989 8.8513644414e-08
          -1.5069125891 -1.0549764633 1.0924781435e-07 -1.7234067917 -2.388851881 -0.097194962204
          5.1673183441 -9.7340288162 -0.3358476162 8.3216905594 -7.7571325302 0.9786324501
          0 0 0 0.37166032195 -6.6237778664 -0.45547306538
          6.0439620018 -7.3374795914 0.8404866457 -1.7233457565 -2.4339742661 1.8777683408e-07
          0.35729685426 -6.7095508575 -0.23252563179 5.1735372543 -9.758190155 1.6718624352e-07
          -0.43560400605 -0.61994177103 -0.00016375632549 2.1457438469 -6.859954834 0.29515865445
          3.060765028 -9.4270048141 -0.58000326157 9.8492908478 -10.42787838 0.43100470304
          -1.4773240089 -4.342443943 -0.36147934198 1.2657314539 -4.2778782845 0.55272710323
          0 0 0 -0.1939343363 -4.3055377007 0.20415446162
          3.0695505142 -9.4932909012 -0.2894808054 -1.4788054228 -1.0031411648 -0.038429599255
          -1.5267183781 -4.4001979828 -0.16661843657 7.3824424744 -10.04577446 0.38275378942
          4.0657720566 -7.0142951012 0.70954340696 -0.48246571422 -2.121489048 0.26948615909
          11.117369652 -13.051657677 -0.76394635439 0 0 0
          0.35657608509 -6.73468256 2.6614870308e-07 8.5302219391 -12.698477745 -0.69990384579
          11.162020683 -13.100239754 -0.38291338086 0 0 0
          -2.3682639599 -1.1766264439 0.24714876711 8.5710754395 -12.750350952 -0.34899014235
          3.0718379021 -9.5143280029 2.4867662773e-07 -2.5462107658 -1.2554405928 0.066059373319
          -1.7234066725 -2.388851881 0.097195342183 -1.5246618986 -4.436522007 2.6645221851e-07
          5.1673183441 -9.7340288162 0.33584794402 6.1623692513 -12.408262253 -0.62973374128
          -2.7741038799 -2.5986499786 -0.28794041276 11.17165184 -13.117612839 4.3720184806e-08
          0 0 0 -2.8863005638 -2.583959341 -0.1205984354
          6.1875796318 -12.458833694 -0.31393674016 8.5828132629 -12.767961502 1.3134487631e-07
          -2.4755370617 -1.340061903 1.6424021965e-07 2.1503226757 -6.7709083557 0.59504753351
          0.99921005964 -9.2674789429 -0.48380437493 9.79550457 -10.356848717 0.85604614019
          0 0 0 -1.124294281 -6.7093696594 -0.44088873267
          0.35729694366 -6.7095513344 0.23252616823 -0.15765018761 -4.2024183273 0.40532079339
          7.33425951 -9.9724836349 0.76454424858 -1.3160841465 -0.87320405245 -0.18083865941
          -1.1618568897 -6.74979496 -0.20508243144 0.98825800419 -9.3271398544 -0.24571041763
          3.0695505142 -9.4932909012 0.28948131204 -1.5267182589 -4.4001979828 0.16661897302
          6.1949558258 -12.474896431 2.1659479899e-07 -2.880053997 -2.6151926517 2.5173886797e-07
          3.9155881405 -12.197971344 -0.56183898449 -2.554956913 -4.6731057167 -0.47234365344
          -1.6311308146 -2.320463419 0.21626061201 11.162020683 -13.100240707 0.38291347027
          5.1415009499 -9.6629734039 0.6712141633 0 0 0
          0.98943203688 -9.3460206985 3.3284450751e-07 -1.1571565866 -6.7797265053 3.4184202491e-07
          3.9246208668 -12.240279198 -0.28137022257 8.5710763931 -12.750350952 0.34899041057
          -2.6377038956 -4.6399493217 -0.20236422122 -2.5462107658 -1.2554405928 -0.066059045494
          0.37166053057 -6.6237783432 0.45547360182 3.928716898 -12.254414558 3.0357833225e-07
          6.1875796318 -12.458834648 0.31393718719 -2.8863003254 -2.583959341 0.12059894949
          -2.6285572052 -4.6654348373 3.3270228528e-07 12.321530342 -15.811569214 -0.69810843468
          0 0 0 12.355228424 -15.847120285 -0.34895190597
          3.0607652664 -9.4270048141 0.5800037384 9.6388759613 -15.486064911 -0.65028947592
          -1.4773237705 -4.3424444199 0.36147990823 -0.63158434629 -9.3209037781 -0.51529973745
          -0.69575762749 -1.8237849474 0.35098469257 -1.1618567705 -6.74979496 0.20508311689
          0.9882581234 -9.3271398544 0.24571108818 0 0 0
          9.6701250076 -15.524339676 -0.32348328829 -0.66288232803 -9.3320550919 -0.24376377463
          -0.68328291178 -1.8593634367 0.13560190797 1.6826398373 -12.057785034 -0.52304470539
          -2.1681959629 -7.066945076 -0.61110365391 11.117369652 -13.051657677 0.7639464736
          0 0 0 8.5302219391 -12.698477745 0.69990414381
          12.363769531 -15.859607697 8.6562984336e-08 -2.2341535091 -7.0041847229 -0.26849251986
          1.6723846197 -12.08409214 -0.26084944606 -2.3682639599 -1.1766264439 -0.24714837968
          7.1221356392 -15.222223282 -0.59724855423 -1.6987462044 -3.1818368435 0.14885360003
          0 0 0 3.9246211052 -12.240279198 0.28137084842
          -2.6377036572 -4.6399493217 0.20236489177 9.6796941757 -15.536844254 1.7845124489e-07
          -0.65437060595 -9.3548116684 4.1230268266e-07 7.1432800293 -15.257382393 -0.29643318057
          -1.826102376 -3.2557156086 0.034314122051 -0.71676534414 -1.8881257772 1.3691332867e-07
          6.1623697281 -12.408262253 0.62973421812 -2.7741036415 -2.5986502171 0.2879409492
          1.6737705469 -12.096687317 3.9278904751e-07 -2.2196335793 -7.0251412392 4.1038691734e-07
          0.99921023846 -9.2674789429 0.48380506039 7.149916172 -15.267814636 2.6741560077e-07
          -1.8017847538 -3.2587656975 2.9598837159e-07 -1.1242940426 -6.7093701363 0.44088941813
          12.355228424 -15.847120285 0.34895208478 4.7233304977 -15.047141075 -0.5520196557
          0 0 0 -2.8263356686 -5.1619358063 -0.33058717847
          4.7327260971 -15.06855011 -0.27541851997 9.6701259613 -15.524339676 0.32348364592
          -0.68328291178 -1.8593635559 -0.13560162485 -0.66288214922 -9.3320550919 0.2437646091
          -2.938447237 -5.2048807144 -0.20836727321 3.9155883789 -12.197971344 0.56183958054
          -0.036201708019 -12.106615067 -0.59388643503 1.6723847389 -12.08409214 0.26085022092
          -2.5549564362 -4.6731061935 0.4723443687 -2.2341535091 -7.0041847229 0.26849338412
          -1.6726976633 -9.6941919327 -0.72752666473 -0.052361033857 -12.086283684 -0.28413009644
          4.7365665436 -15.07694149 3.575132439e-07 7.1432805061 -15.257382393 0.29643371701
          -1.826102376 -3.2557156086 -0.034313533455 -1.7099519968 -9.6068906784 -0.33232754469
          -2.83335495 -5.1927247047 4.2130471911e-07 13.439592361 -18.617937088 -0.65357673168
          0 0 0 -0.44992759824 -2.1016886234 0.24522040784
          -0.040658913553 -12.09918499 4.7828717697e-07 2.4100651741 -14.950903893 -0.55476516485
          10.677646637 -18.311325073 -0.61418062449 12.321530342 -15.811570168 0.69810861349
          0 0 0 0 0 0
          -1.6900185347 -9.6211090088 4.8645239303e-07 -2.9542233944 -7.5653347969 -0.80953943729
          13.462946892 -18.646606445 -0.32621923089 2.4073867798 -14.949021339 -0.27373149991
          10.699778557 -18.342002869 -0.30518686771 9.6388759613 -15.486065865 0.65028983355
          -0.44681325555 -2.0855543613 0.10895331949 -0.63158404827 -9.3209047318 0.51530057192
          -0.69575750828 -1.8237850666 -0.35098439455 -3.0181789398 -7.4384999275 -0.3959749341
          4.7327260971 -15.06855011 0.27541923523 -2.9384474754 -5.2048807144 0.20836812258
          8.0275764465 -18.063508987 -0.56968080997 1.6826400757 -12.057785988 0.52304548025
          -2.1681957245 -7.066945076 0.61110454798 0 0 0
          -1.0018135309 -3.9328334332 0.14003649354 13.469577789 -18.656377792 1.3418390665e-07
          -0.45478272438 -2.1035535336 1.3675318655e-07 2.4086954594 -14.955392838 4.5225863232e-07
          8.0446958542 -18.089668274 -0.28226149082 7.1221356392 -15.222224236 0.59724909067
          10.706788063 -18.351451874 2.2829496515e-07 -1.6987460852 -3.1818368435 -0.14885306358
          -3.0138890743 -7.4228539467 5.0337985158e-07 -1.0718295574 -3.956880331 0.086810730398
          -0.052360851318 -12.086283684 0.28413105011 -1.7099517584 -9.6068906784 0.33232855797
          -1.125928998 -12.496383667 -0.80339592695 8.0498323441 -18.096338272 3.2048728826e-07
          -1.0829604864 -3.9680092335 3.003223128e-07 -1.1253976822 -12.404566765 -0.37765705585
          5.4830832481 -17.909711838 -0.53470349312 0 0 0
          -1.6189646721 -5.8073687553 -0.00092814594973 13.462946892 -18.646606445 0.32621949911
          -0.44681322575 -2.0855543613 -0.10895305127 2.4073867798 -14.949022293 0.27373242378
          5.4943389893 -17.918991089 -0.26681134105 4.7233304977 -15.047141075 0.55202037096
          10.699778557 -18.342004776 0.30518731475 0.61614143848 -15.034393311 -0.64429932833
          -2.4987986088 -10.224374771 -0.92545944452 -2.8263356686 -5.1619358063 0.33058810234
          -1.7429623604 -5.8936190605 -0.018482852727 -3.0181787014 -7.4384999275 0.39597594738
          0.61906450987 -14.993453026 -0.31135860085 -2.5142009258 -10.094771385 -0.46197673678
          -1.1042720079 -12.408904076 5.6063936427e-07 -0.036201376468 -12.10661602 0.59388738871
          8.0446958542 -18.089668274 0.28226214647 -1.6726973057 -9.6941919327 0.72752767801
          5.4972186089 -17.922771454 4.14132586e-07 -1.0718295574 -3.956880331 -0.086810134351
          -1.7852880955 -5.9085550308 4.6855461733e-07 0.63188123703 -14.998028755 5.440584232e-07
          -2.5063250065 -10.073040009 5.889081649e-07 -2.4038357735 -8.0118131638 -0.2073430568
          3.1012408733 -17.856172562 -0.55313575268 13.439592361 -18.617937088 0.6535769701
          0 0 0 -1.125397563 -12.404566765 0.37765818834
          -0.44992744923 -2.1016886234 -0.24522010982 -2.5761694908 -8.1474256516 -0.23164635897
          2.4100654125 -14.950903893 0.55476611853 10.677646637 -18.311325073 0.61418104172
          3.1073858738 -17.839017868 -0.27465480566 14.502371788 -21.462560654 -0.62686675787
          0 0 0 -2.954223156 -7.5653347969 0.80954051018
          14.516565323 -21.488605499 -0.31260624528 -0.23835289478 -2.2570719719 0.13553282619
          11.670479774 -21.165416718 -0.5902159214 5.4943394661 -17.918991089 0.26681214571
          0 0 0 -1.7429623604 -5.8936190605 0.018483774737
          11.684279442 -21.192947388 -0.29325714707 -0.22475519776 -2.2228844166 0.061199713498
          0.61906474829 -14.993453026 0.31135970354 -2.5142006874 -10.094771385 0.46197792888
          8.0275764465 -18.063510895 0.56968146563 -2.5215010643 -8.1187877655 6.0358172504e-07
          3.108705759 -17.841005325 5.1237680054e-07 -1.0018132925 -3.9328336716 -0.14003591239
          -0.56778299809 -15.42075634 -0.81554627419 -0.5169056654 -4.2814292908 0.12203697115
          8.8982868195 -20.918813705 -0.54803919792 -1.994312644 -13.058898926 -0.97296386957
          14.521205902 -21.497161865 1.8277776803e-07 0 0 0
          -0.54180544615 -15.340334892 -0.39278814197 11.688958168 -21.200931549 2.7766972721e-07
          -0.23204888403 -2.2286646366 1.3276174116e-07 8.9105186462 -20.941490173 -0.27159786224
          -0.54690122604 -4.2728877068 0.067856393754 -1.9725323915 -12.94750309 -0.48516336083
          -1.1259287596 -12.496383667 0.80339711905 -0.52048867941 -15.337996483 6.2936692302e-07
          -3.2160468102 -10.810358047 -1.0583722591 -2.5761694908 -8.1474256516 0.23164759576
          1.2467697859 -17.982460022 -0.65468126535 8.9144935608 -20.946353912 3.7254946506e-07
          5.4830832481 -17.909711838 0.53470432758 3.1073861122 -17.839017868 0.27465581894
          -1.9591375589 -12.924405098 6.6078615646e-07 -0.55584013462 -4.2833075523 2.9401084589e-07
          -1.6189645529 -5.8073687553 0.00092898885487 14.516565323 -21.488607407 0.31260663271
          6.2013030052 -20.759431839 -0.5146124959 -3.2344653606 -10.696640015 -0.55424326658
          -0.89182555676 -6.3427362442 0.066160477698 1.263348937 -17.93289566 -0.319103688
          0.61614179611 -15.034393311 0.64430046082 -2.4987981319 -10.224374771 0.92546063662
          0 0 0 -0.9598891139 -6.3941841125 0.03853398934
          11.684279442 -21.192947388 0.29325768352 -0.22475516796 -2.2228844166 -0.061199452728
          6.2113218307 -20.764556885 -0.25717914104 -3.2204544544 -10.661142349 7.1530280366e-07
          1.2768479586 -17.933515549 6.0321161754e-07 -0.54180526733 -15.340335846 0.39278942347
          6.2137298584 -20.76578331 4.6905083195e-07 -0.97990894318 -6.415784359 4.654343968e-07
          8.9105186462 -20.941490173 0.2715986073 -0.54690116644 -4.2728877068 -0.067855812609
          -1.9725322723 -12.94750309 0.48516470194 -2.4038357735 -8.0118141174 0.20734426379
          3.1012411118 -17.856172562 0.55313682556 3.718000412 -20.716711044 -0.53543865681
          14.502371788 -21.462560654 0.6268671155 0 0 0
          -1.3615628481 -8.6463661194 -0.030776193365 -0.23835271597 -2.2570719719 -0.13553254306
          11.670479774 -21.165416718 0.59021651745 -3.2344651222 -10.696640015 0.55424469709
          1.2633491755 -17.93289566 0.31910488009 3.7274017334 -20.69348526 -0.26772391796
          -1.4755095243 -15.998781204 -0.95799344778 -1.4807440042 -8.7641363144 -0.043181322515
          -0.9598891139 -6.3941841125 -0.038533080369 6.2113218307 -20.764556885 0.25718006492
          -1.4357112646 -15.908680916 -0.47572752833 -0.030230669305 -18.345867157 -0.79048705101
          -2.6874639988 -13.728364944 -1.1290967464 15.535878181 -24.347536087 -0.61456871033
          0 0 0 12.638009071 -24.054161072 -0.57776218653
          -0.56778264046 -15.420757294 0.81554752588 -0.51690548658 -4.2814292908 -0.12203641236
          8.8982868195 -20.918815613 0.54803997278 -2.6638777256 -13.6133461 -0.57167291641
          0.0057065160945 -18.277143478 -0.3870985806 -1.9943124056 -13.058898926 0.97296518087
          15.542489052 -24.373596191 -0.30637004972 0 0 0
          -1.5069161654 -8.8135824203 6.4111327447e-07 3.7290179729 -20.692853928 5.6761791711e-07
          -0.043405283242 -2.2997455597 0.034475903958 12.644620895 -24.081096649 -0.2872441113
          -0.034420974553 -2.2603940964 0.01475873217 -1.4179843664 -15.890415192 7.1406827828e-07
          9.758887291 -23.802490234 -0.53684020042 -2.6460490227 -13.583669662 7.5759305673e-07
          0.026526996866 -18.271463394 6.8208021275e-07 15.545319557 -24.381967545 2.2695112989e-07
          0 0 0 -0.077825918794 -4.3949260712 0.043709475547
          9.7659282684 -23.824766159 -0.26616993546 12.647314072 -24.088840485 3.2202771649e-07
          -3.2160465717 -10.810358047 1.0583736897 1.2467701435 -17.982461929 0.65468251705
          -0.034209996462 -2.2631790638 1.2716097331e-07 -0.072513118386 -4.3725581169 0.0233972352
          6.2013030052 -20.759431839 0.51461344957 -0.89182537794 -6.3427362442 -0.066159613431
          -2.0616662502 -11.441040039 -0.37281981111 1.8273198605 -20.861778259 -0.64262926579
          -1.4807441235 -8.7641363144 0.043182563037 3.7274019718 -20.69348526 0.26772505045
          -2.2323470116 -11.660072327 -0.34015330672 1.8507560492 -20.810201645 -0.31478923559
          -1.4357111454 -15.90868187 0.47572895885 9.7690382004 -23.829734802 4.190559082e-07
          -0.071031227708 -4.3785467148 2.766853413e-07 6.9207072258 -23.620857239 -0.50469911098
          -2.6638774872 -13.6133461 0.57167446613 0.0057067265734 -18.277143478 0.3870999217
          15.542489052 -24.373596191 0.30637049675 0 0 0
          -0.10921814293 -6.5237107277 0.05046197027 6.9277591705 -23.627182007 -0.25156056881
          12.644620895 -24.081096649 0.28724473715 -0.10810273886 -6.5477595329 0.025898164138
          -2.122289896 -11.625864983 7.5858264381e-07 1.8648300171 -20.808122635 6.5245325231e-07
          -0.034420952201 -2.2603940964 -0.014758486301 9.7659282684 -23.824766159 0.26617076993
          6.9304962158 -23.628425598 5.1734900808e-07 -0.10785580426 -6.5761008263 4.2884886398e-07
          3.7180006504 -20.716712952 0.5354397893 -0.98989969492 -18.902757645 -0.90980303288
          -0.072513073683 -4.3725581169 -0.023396687582 -1.3615627289 -8.6463661194 0.030777286738
          -2.1292457581 -16.734136581 -1.1179987192 -0.94408780336 -18.829334259 -0.45243230462
          -1.4755091667 -15.998782158 0.95799487829 -2.0816357136 -16.631830215 -0.55695021152
          -2.2323474884 -11.660072327 0.34015488625 1.8507562876 -20.810201645 0.31479054689
          -0.030230328441 -18.345867157 0.79048842192 -2.6874637604 -13.728365898 1.1290982962
          -0.14653001726 -8.9139976501 0.048794414848 4.3109750748 -23.553979874 -0.52165293694
          15.535879135 -24.347536087 0.61456912756 0 0 0
          12.638009071 -24.054161072 0.57776284218 -0.14714224637 -9.0391330719 0.027602486312
          -0.92456322908 -18.815990448 7.4747237022e-07 -2.7786500454 -14.696391106 -1.416990757
          0.48310780525 -21.186618805 -0.75450491905 4.3203792572 -23.531396866 -0.26050648093
          -0.043405123055 -2.2997455597 -0.034475639462 -2.0597398281 -16.610134125 7.7707977653e-07
          6.9277591705 -23.627182007 0.25156158209 -0.1081027016 -6.5477595329 -0.025897322223
          0.52061593533 -21.125932693 -0.37260618806 -2.7178709507 -14.558531761 -0.69456326962
          9.758887291 -23.802490234 0.53684103489 -0.14874991775 -9.0776262283 5.6483662547e-07
          4.3228678703 -23.530031204 6.1468608692e-07 -0.077825702727 -4.3949260712 -0.043708942831
          0.53974962234 -21.117372513 7.2126806572e-07 16.55888176 -27.278865814 -0.61299484968
          0 0 0 -2.6748912334 -14.533622742 7.9062294844e-07
          16.559879303 -27.306581497 -0.30570793152 0 0 0
          -0.94408762455 -18.829334259 0.45243379474 13.595377922 -26.985462189 -0.57441961765
          -2.0616667271 -11.441040039 0.37282142043 1.8273202181 -20.861778259 0.64263051748
          0.15261043608 -2.2414665222 -0.067950181663 -2.0816357136 -16.631830215 0.55695176125
          13.596709251 -27.013425827 -0.28592553735 0.15608912706 -2.2040276527 -0.031937669963
          6.9207077026 -23.620857239 0.50470012426 16.561290741 -27.315475464 2.6042818035e-07
          -0.14714226127 -9.0391330719 -0.027601381764 10.624516487 -26.726652145 -0.53389406204
          0.36950740218 -4.2565422058 -0.03598825261 4.3203792572 -23.531396866 0.26050770283
          0 0 0 2.3848333359 -23.677410126 -0.623000741
          -0.16332317889 -11.584000587 0.064946487546 -0.10921795666 -6.5237107277 -0.050461173058
          0.40683209896 -4.2399082184 -0.023876104504 10.627707481 -26.750333786 -0.26506981254
          13.597848892 -27.021728516 3.5618137417e-07 0.52061617374 -21.125932693 0.37260761857
          -0.17858375609 -11.821510315 0.021530430764 2.4104981422 -23.628293991 -0.30585855246
          -2.7178707123 -14.558531761 0.69456487894 0.16311350465 -2.2080178261 1.1871044592e-07
          -1.6317334175 -19.659862518 -1.0630794764 10.629807472 -26.756416321 4.5567051643e-07
          -0.9898993969 -18.902757645 0.90980452299 0.41916519403 -4.2476840019 2.5091787847e-07
          -0.17786107957 -11.885588646 6.7222435973e-07 -1.5684742928 -19.576107025 -0.52652132511
          2.4248244762 -23.624155045 6.9389693635e-07 -2.1292455196 -16.734138489 1.1180002689
          16.559879303 -27.306581497 0.30570843816 7.6729159355 -26.519252777 -0.50217032433
          -2.1726119518 -17.785741806 -1.3861507177 0 0 0
          0.68194490671 -6.3085436821 0.019920444116 -0.5447177887 -21.678134918 -0.8531961441
          0.75224709511 -6.3479738235 0.0088854003698 7.6779885292 -26.529693604 -0.24970625341
          13.596709251 -27.013425827 0.2859262526 -2.0513167381 -17.691408157 -0.66904771328
          -0.49814665318 -21.616477966 -0.42564642429 0.15608914196 -2.2040276527 0.031937900931
          -0.14652992785 -8.9139976501 -0.048793382943 4.3109750748 -23.553979874 0.52165418863
          -1.5453124046 -19.562234879 7.778500617e-07 -2.7786500454 -14.696392059 1.4169924259
          0.48310813308 -21.186618805 0.75450634956 7.680574894 -26.532463074 5.5640350638e-07
          10.627707481 -26.750333786 0.26507073641 -2.0131137371 -17.66649437 7.6273477134e-07
          0.40683212876 -4.2399082184 0.023876603693 0.77309530973 -6.3667497635 3.7276419107e-07
          -0.1785838306 -11.821510315 -0.021529113874 2.4104981422 -23.628293991 0.30585995317
          -0.48014095426 -21.604578018 7.6809476468e-07 0.99972432852 -23.940237045 -0.71680957079
          -0.25601404905 -15.681487083 -0.043871175498 1.035572052 -23.886514664 -0.35544466972
          -0.25174093246 -16.141969681 -0.021492518485 16.55888176 -27.278867722 0.61299538612
          0 0 0 -1.5684741735 -19.576108932 0.52652287483
          1.1066690683 -8.6067552567 0.13191089034 4.934431076 -26.40754509 -0.51146757603
          1.2187662125 -8.7066764832 0.085690811276 13.595377922 -26.985462189 0.5744202733
          0.15261057019 -2.2414665222 0.067950427532 4.9436941147 -26.390306473 -0.25455394387
          7.6779885292 -26.529693604 0.2497073561 -2.0513167381 -17.691408157 0.669049263
          0.75224715471 -6.3479738235 -0.008884661831 -0.49814647436 -21.616479874 0.42564794421
          1.052431941 -23.875616074 7.5290779478e-07 -0.24607616663 -15.974677086 7.3765767183e-07
          10.624516487 -26.726654053 0.53389495611 0.369507581 -4.256541729 0.035988740623
          2.3848338127 -23.677410126 0.62300211191 1.2454285622 -8.754899025 4.5420219408e-07
          -0.16332322359 -11.583999634 -0.064945288002 4.9463310242 -26.389759064 6.5434983298e-07
          17.584875107 -30.263101578 -0.61888706684 0 0 0
          -1.6317331791 -19.659864426 1.0630810261 1.0355722904 -23.886516571 0.35544615984
          0 0 0 14.553423882 -29.966714859 -0.57680237293
          -1.6625953913 -20.708005905 -1.244994998 -0.25174108148 -16.141969681 0.021493975073
          0.36679723859 -2.0719463825 -0.17923754454 -1.214471221 -22.381988525 -0.98271387815
          17.582281113 -30.293863297 -0.30889078975 7.6729164124 -26.519254684 0.50217145681
          14.551558495 -29.997276306 -0.28753688931 0.37557220459 -2.0472342968 -0.080484583974
          -2.1726119518 -17.785741806 1.3861522675 -1.5151743889 -20.684829712 -0.59873229265
          0.68194508553 -6.3085436821 -0.019919741899 2.964193821 -26.469856262 -0.60229891539
          1.2187662125 -8.7066764832 -0.085689909756 -0.54471749067 -21.678134918 0.85319769382
          1.7097119093 -11.337848663 0.40922823548 4.9436941147 -26.39030838 0.25455525517
          -1.1433689594 -22.323003769 -0.48612546921 1.8876276016 -11.559167862 0.36171850562
          2.990465641 -26.425905228 -0.29582792521 11.500177383 -29.699962616 -0.53444725275
          17.582830429 -30.303823471 2.7686573389e-07 0.86021047831 -3.8699226379 -0.073674850166
          0 0 0 11.501576424 -29.72685051 -0.2658636272
          0.93345755339 -3.880740881 -0.051310356706 14.551673889 -30.006729126 3.7489363081e-07
          -0.098528556526 -24.327493668 -0.79562407732 -1.4840444326 -20.66324234 7.2857852729e-07
          -1.1236679554 -22.31312561 7.70513509e-07 -0.23475725949 -18.789039612 -0.068990461528
          0.38336396217 -2.061817646 1.1706087122e-07 -0.053989049047 -24.276971817 -0.3981256187
          3.004431963 -26.421007156 7.3170144788e-07 -0.22197602689 -19.251754761 -0.031644482166
          1.7886384726 -11.529483795 5.2548358553e-07 0.99972462654 -23.940237045 0.7168110013
          11.502878189 -29.73459053 4.7860658015e-07 -0.25601428747 -15.681487083 0.043872524053
          0.94559884071 -3.886405468 2.3194375842e-07 8.4580011368 -29.470714569 -0.499556005
          17.582281113 -30.293863297 0.30889135599 -0.039740867913 -24.264482498 7.8391371972e-07
          1.4486529827 -5.7409396172 0.071981944144 1.1066691875 -8.6067552567 -0.13190999627
          -0.21796485782 -19.127176285 6.9884208642e-07 4.934431076 -26.40754509 0.51146882772
          0 0 0 8.462849617 -29.487243652 -0.24850162864
          1.5673406124 -5.799642086 0.040732257068 14.551558495 -29.997276306 0.28753763437
          -1.5151742697 -20.684829712 0.59873378277 -1.143368721 -22.323003769 0.48612701893
          0.37557220459 -2.0472340584 0.080484807491 2.9904658794 -26.425905228 0.29582938552
          1.8876277208 -11.559167862 -0.36171752214 11.501576424 -29.72685051 0.26586458087
          8.4648866653 -29.492265701 5.8446767071e-07 1.5581799746 -26.643323898 -0.681453228
          2.5558373928 -14.623876572 1.5217721462 1.6140420437 -5.8151273727 3.2185971577e-07
          0.93345755339 -3.880740881 0.051310814917 2.4823396206 -14.473129272 0.747174263
          -0.053988862783 -24.276971817 0.39812719822 1.5921624899 -26.598466873 -0.33861801028
          -0.2219761312 -19.251754761 0.031645856798 5.6095318794 -29.310079575 -0.49806469679
          17.584875107 -30.263101578 0.61888760328 0 0 0
          2.1667742729 -7.8855433464 0.22720836103 5.6202116013 -29.301460266 -0.2477312386
          14.553423882 -29.966716766 0.57680308819 2.3493556976 -8.0061769485 0.23643656075