<?xml version="1.0"?>
<VTKFile type="UnstructuredGrid" version="0.1" byte_order="LittleEndian" header_type="UInt32" compressor="vtkZLibDataCompressor">
  <UnstructuredGrid>
    <Piece NumberOfPoints="6405" NumberOfCells="4800">
      <PointData>
        <DataArray type="Float32" Name="DISPLACEMENT" NumberOfComponents="3" ComponentName0="X-DISPLACEMENT" ComponentName1="Y-DISPLACEMENT" ComponentName2="Z-DISPLACEMENT" format="ascii" RangeMin="0" RangeMax="365.03519056">
          0 0 0 0 0 0
          2.8265752792 -1.6213883162 -1.3025316 0 0 0
          1.6495922804 -0.90056473017 -0.88215208054 0 0 0
          2.5982794762 -1.8672157526 -0.51280397177 1.4396580458 -1.1144260168 -0.35952174664
          0 0 0 5.1510047913 -3.3764488697 -1.332248807
          0 0 0 5.0863280296 -3.6619722843 -0.67679864168
          3.2986280918 -2.8251636028 -0.980212152 0 0 0
          0 0 0 2.6144039631 -1.9377611876 2.8465794166e-09
          0.86411231756 -0.59041392803 -0.5081448555 1.4341154099 -1.1508175135 7.8163475692e-09
          3.2252006531 -3.0641479492 -0.49852979183 0.72554963827 -0.7970725894 -0.21154001355
          5.0330038071 -3.7384417057 2.0020562985e-08 1.7443859577 -2.4454092979 -0.61778187752
          0 0 0 3.1818554401 -3.1350681782 2.7071326514e-08
          1.6570091248 -2.6642558575 -0.31890657544 0 0 0
          7.2108044624 -5.86221838 -1.2244566679 0 0 0
          0.71584838629 -0.82910466194 9.8520436254e-09 0 0 0
          0 0 0 2.5982797146 -1.8672157526 0.51280397177
          4.8329501152 -5.3535642624 -0.94819414616 7.2331056595 -6.0704131126 -0.61882787943
          -0.015983881429 -0.52861410379 -0.10827059299 1.4396580458 -1.1144260168 0.35952174664
          4.8428349495 -5.5479106903 -0.48151242733 -0.12413682789 -0.74999421835 -0.064073704183
          1.6230908632 -2.7256109715 3.1661112843e-08 5.0863285065 -3.6619722843 0.67679864168
          0 0 0 0 0 0
          0.14059987664 -2.2912285328 -0.28443998098 2.7464966774 -5.0038018227 -0.68679964542
          7.2102313042 -6.1397047043 4.7246249579e-08 3.2252006531 -3.0641481876 0.49852985144
          2.7054586411 -5.1793570518 -0.3486700058 0.72554963827 -0.7970725894 0.21154004335
          4.8295722008 -5.6082248688 5.622049315e-08 0.033634211868 -2.5010795593 -0.15512809157
          -0.15240497887 -0.78952568769 8.2662490186e-09 0 0 0
          9.0392141342 -8.7626914978 -1.0632402897 0 0 0
          6.2911901474 -8.3105573654 -0.883425951 1.657009244 -2.6642558575 0.31890663505
          9.0894584656 -8.9001340866 -0.53675049543 2.8265755177 -1.6213883162 1.3025316
          0 0 0 0 0 0
          0.0057864002883 -2.5624101162 3.443044605e-08 2.6907763481 -5.232875824 6.3680161588e-08
          -0.77380883694 -0.74235665798 0.24056737125 6.3280677795 -8.4421682358 -0.44448709488
          1.6495922804 -0.90056473017 0.88215208054 0.61630934477 -4.8091182709 -0.4592653811
          0 0 0 7.2331056595 -6.0704131126 0.61882799864
          -0.85879588127 -0.96852558851 0.086461640894 0.53485804796 -4.9604320526 -0.23463593423
          4.8428349495 -5.5479106903 0.48151254654 -0.12413679808 -0.74999421835 0.064073726535
          3.8183438778 -7.9817466736 -0.7155507803 -1.1536697149 -2.4010822773 -0.060777314007
          9.0837335587 -8.946138382 8.1017795139e-08 5.1510047913 -3.3764488697 1.332248807
          0 0 0 0 0 0
          3.807413578 -8.0966730118 -0.35998293757 3.2986280918 -2.8251636028 0.98021221161
          6.3318266869 -8.4854135513 9.173486859e-08 -1.3082573414 -2.5732953548 -0.024160958827
          0.86411237717 -0.59041392803 0.5081449151 -0.89464223385 -1.0299893618 1.0857100996e-08
          0.51745152473 -5.009786129 6.9274562975e-08 2.7054586411 -5.1793570518 0.34867012501
          0.033634264022 -2.5010795593 0.15512816608 3.8046000004 -8.1354475021 1.0137313211e-07
          1.7443860769 -2.4454092979 0.61778199673 -1.3231699467 -2.6372168064 3.6246348145e-08
          1.3604707718 -7.7778573036 -0.59333157539 9.0894584656 -8.9001340866 0.53675067425
          7.2108049393 -5.86221838 1.2244567871 0 0 0
          10.644589424 -11.903718948 -0.92608815432 0 0 0
          0 0 0 -1.0476067066 -4.8881707191 -0.38695997
          1.3119521141 -7.8616580963 -0.29549068213 10.695714951 -11.98590374 -0.46539378166
          7.6594619751 -11.495006561 -0.81830143929 6.3280677795 -8.4421682358 0.4444873035
          -1.1809993982 -1.1517956257 0.47803193331 0 0 0
          4.8329501152 -5.3535642624 0.94819426537 -0.015983819962 -0.52861410379 0.10827063024
          -1.1794303656 -4.9621272087 -0.18017105758 -0.85879588127 -0.96852552891 -0.086461618543
          -1.2533682585 -1.337156415 0.19104842842 0.53485810757 -4.9604320526 0.23463606834
          7.7009701729 -11.575737953 -0.40913590789 3.807413578 -8.0966730118 0.35998314619
          1.3027276993 -7.8950572014 1.0886715529e-07 10.698944092 -12.014334679 1.1936958799e-07
          -1.8875900507 -2.8699691296 -0.10166299343 -1.3082572222 -2.5732953548 0.02416103147
          0 0 0 4.9183917046 -11.182234764 -0.71857249737
          0.14059998095 -2.2912285328 0.28444007039 2.7464969158 -5.0038018227 0.68679976463
          -1.191957593 -5.0089130402 7.0357785376e-08 7.7104430199 -11.602592468 1.3251812447e-07
          -1.2644968033 -1.4064124823 2.5281117644e-08 -2.1323509216 -2.9061570168 -0.016147108749
          4.9259257317 -11.248571396 -0.35939487815 9.0392141342 -8.7626914978 1.0632404089
          0 0 0 -0.58582282066 -7.832906723 -0.60898900032
          6.2911901474 -8.3105573654 0.88342612982 -2.1144196987 -2.9573309422 2.6324206814e-08
          -0.65977877378 -7.8394026756 -0.29151022434 4.9293470383 -11.272121429 1.4451954655e-07
          -0.77380877733 -0.74235665798 -0.24056734145 1.3119521141 -7.8616580963 0.29549092054
          2.2519996166 -10.973807335 -0.66053754091 10.695714951 -11.98590374 0.46539402008
          -1.9201726913 -5.508374691 -0.68849492073 0.61630946398 -4.8091182709 0.45926553011
          0 0 0 -1.1794302464 -4.9621272087 0.18017120659
          2.2341058254 -11.010385513 -0.3281762898 -1.2533682585 -1.337156415 -0.19104839861
          -2.0753481388 -5.4038763046 -0.29822692275 7.7009701729 -11.575737953 0.40913617611
          3.8183441162 -7.9817466736 0.71555101871 -1.1536695957 -2.4010822773 0.060777388513
          12.069581985 -15.160420418 -0.8227994442 0 0 0
          -0.66662538052 -7.8667945862 1.1183215776e-07 8.94069767 -14.784553528 -0.76064836979
          12.113126755 -15.207509041 -0.41228500009 0 0 0
          -1.4448280334 -1.6306993961 0.59283208847 8.9785518646 -14.831665993 -0.37911516428
          2.230484724 -11.028581619 1.5440548395e-07 -1.5419237614 -1.7641588449 0.22582502663
          -2.1323509216 -2.9061570168 0.01614715904 -2.063431263 -5.4385890961 5.3480174955e-08
          4.9259257317 -11.248571396 0.35939514637 6.0140271187 -14.480840683 -0.70141512156
          -2.3302733898 -3.6021807194 -0.35399529338 12.119855881 -15.223924637 1.6158180927e-07
          0 0 0 -2.6294100285 -3.4894912243 -0.15859378874
          6.031826973 -14.516809464 -0.34988838434 8.9889707565 -14.847111702 1.7815978026e-07
          -1.5367215872 -1.8245685101 2.4565679269e-08 1.360470891 -7.7778573036 0.59333181381
          0.065925315022 -10.997737885 -0.70841389894 10.644589424 -11.903718948 0.92608839273
          0 0 0 -1.5836008787 -8.4903469086 -0.93588733673
          -0.65977865458 -7.8394026756 0.29151043296 -1.0476065874 -4.8881707191 0.38696011901
          7.6594624519 -11.495006561 0.8183016777 -1.180999279 -1.1517956257 -0.4780318737
          -1.6220109463 -8.369597435 -0.43044519424 0.040661979467 -10.971658707 -0.34563905001
          2.2341058254 -11.010385513 0.32817661762 -2.0753479004 -5.4038763046 0.29822704196
          6.0379743576 -14.529284477 1.9337508661e-07 -2.5925028324 -3.5013608932 2.7489166499e-09
          3.1971945763 -14.268080711 -0.67400485277 -2.3944585323 -6.4712266922 -1.0612835884
          -1.8875899315 -2.8699691296 0.10166303813 12.113126755 -15.207509041 0.41228532791
          4.9183917046 -11.182234764 0.71857279539 0 0 0
          0.039795648307 -10.984429359 1.6077925125e-07 -1.6011492014 -8.3925867081 1.0003732598e-07
          3.2006442547 -14.278964996 -0.33567643166 8.9785518646 -14.831665993 0.37911552191
          -2.4881825447 -6.2811951637 -0.51603591442 -1.5419237614 -1.7641587257 -0.22582498193
          -0.58582264185 -7.832906723 0.60898923874 3.2015590668 -14.286867142 2.0626093544e-07
          6.0318274498 -14.516809464 0.34988877177 -2.6294100285 -3.4894912243 0.15859378874
          -2.4658472538 -6.2723670006 3.140788607e-08 13.362769127 -18.469350815 -0.75025564432
          0 0 0 13.397003174 -18.496824265 -0.37502875924
          2.2519996166 -10.973807335 0.66053783894 10.146364212 -18.116743088 -0.71280187368
          -1.9201724529 -5.508374691 0.68849503994 -1.1228903532 -11.584570885 -0.98701626062
          -1.7846392393 -2.1697058678 0.63507080078 -1.6220108271 -8.369597435 0.43044540286
          0.04066208005 -10.971658707 0.34563937783 0 0 0
          10.177700043 -18.144857407 -0.35472798347 -1.1058487892 -11.474317551 -0.46741932631
          -1.9446042776 -2.2711815834 0.20578566194 0.80008035898 -14.256940842 -0.72926932573
          -2.0988798141 -9.5055418015 -1.2139599323 12.069581985 -15.160420418 0.82279980183
          0 0 0 8.9406986237 -14.784553528 0.76064872742
          13.404533386 -18.506244659 2.0792624866e-07 -2.0815412998 -9.3635320663 -0.59917718172
          0.80296492577 -14.218161583 -0.35971739888 -1.4448279142 -1.6306992769 -0.59283202887
          7.0873084068 -17.818761826 -0.6744555831 -2.8409881592 -4.4972681999 -0.7307831049
          0 0 0 3.2006442547 -14.278964996 0.33567684889
          -2.4881823063 -6.2811951637 0.51603597403 10.187133789 -18.153440475 2.2846461434e-07
          -1.0803594589 -11.485513687 1.557080509e-07 7.1083078384 -17.83839035 -0.33582353592
          -3.1339116096 -4.2738890648 -0.38045710325 -1.9241677523 -2.3276400566 -2.4785096198e-09
          6.0140275955 -14.480840683 0.70141547918 -2.3302731514 -3.6021807194 0.35399529338
          0.80664545298 -14.222100258 2.1610303236e-07 -2.0520124435 -9.3538913727 8.6237704977e-08
          0.065925508738 -10.997737885 0.70841425657 7.1153187752 -17.844158173 2.4752733907e-07
          -3.0931973457 -4.258081913 -2.9467889462e-08 -1.5836006403 -8.4903469086 0.93588757515
          13.397004128 -18.496824265 0.37502917647 4.1445083618 -17.600666046 -0.65914338827
          0 0 0 -2.8175938129 -7.5694184303 -1.3452637196
          4.1582226753 -17.599199295 -0.32888570428 10.177700043 -18.144857407 0.35472843051
          -1.9446042776 -2.2711815834 -0.20578567684 -1.10584867 -11.474317551 0.46741965413
          -2.8441290855 -7.3870100975 -0.68667578697 3.1971948147 -14.268080711 0.67400532961
          -0.59695935249 -14.74230957 -0.96878325939 0.80296504498 -14.218161583 0.35971784592
          -2.3944582939 -6.4712266922 1.0612837076 -2.0815412998 -9.3635320663 0.59917736053
          -1.7401742935 -12.531628609 -1.207264185 -0.55966538191 -14.641093254 -0.46577617526
          4.162083149 -17.601175308 2.6403014886e-07 7.1083078384 -17.83839035 0.33582404256
          -3.1339116096 -4.2738890648 0.38045704365 -1.6929832697 -12.416637421 -0.59879523516
          -2.8179376125 -7.3613638878 1.070235367e-08 14.565254211 -21.804283142 -0.70151996613
          0 0 0 -2.1163549423 -2.8976671696 0.45404854417
          -0.53253167868 -14.64466095 2.1654919635e-07 1.5667822361 -17.556806564 -0.71622681618
          11.290658951 -21.46827507 -0.67567616701 13.362769127 -18.469350815 0.75025606155
          0 0 0 0 0 0
          -1.6611428261 -12.404716492 1.4592473008e-07 -2.4833524227 -10.654229164 -1.3949688673
          14.590629578 -21.822280884 -0.3500418067 1.5814391375 -17.512823105 -0.35490563512
          11.314732552 -21.486930847 -0.33601346612 10.146364212 -18.116743088 0.71280229092
          -2.4122412205 -2.9060404301 0.093199148774 -1.1228901148 -11.584570885 0.98701655865
          -1.7846391201 -2.1697058678 -0.63507080078 -2.4376235008 -10.538758278 -0.70891243219
          4.1582226753 -17.599199295 0.32888624072 -2.8441288471 -7.3870100975 0.68667584658
          8.1316509247 -21.175333023 -0.64720624685 0.8000805378 -14.256940842 0.72926980257
          -2.0988795757 -9.5055418015 1.2139601707 0 0 0
          -3.0869703293 -5.7164430618 -1.3334926367 14.597533226 -21.828117371 2.581112426e-07
          -2.3580555916 -2.9766569138 -5.0892278836e-08 1.5875440836 -17.511980057 2.7747688591e-07
          8.1510801315 -21.187021255 -0.321834445 7.0873084068 -17.818761826 0.67445605993
          11.32247448 -21.491945267 2.8340181757e-07 -2.8409879208 -4.4972681999 0.7307831049
          -2.4064056873 -10.521512985 6.7835181028e-08 -3.2571187019 -5.406888485 -0.67424637079
          -0.55966520309 -14.641093254 0.4657766223 -1.6929830313 -12.416638374 0.59879553318
          -1.3322923183 -15.577486038 -1.1688919067 8.1577692032 -21.189315796 3.0707690257e-07
          -3.2108309269 -5.3923134804 -7.2416050045e-08 -1.2776017189 -15.474666595 -0.58033758402
          5.0775442123 -20.952331543 -0.6369356513 0 0 0
          -2.8212931156 -8.9515609741 -1.6551892757 14.590629578 -21.822280884 0.35004231334
          -2.4122409821 -2.9060401917 -0.093199230731 1.5814392567 -17.512823105 0.35490620136
          5.0935149193 -20.945232391 -0.31788820028 4.1445083618 -17.600666046 0.65914392471
          11.314732552 -21.486930847 0.33601403236 -0.01715226844 -17.943054199 -0.93405914307
          -2.1378009319 -13.638685226 -1.3608585596 -2.8175935745 -7.5694184303 1.3452638388
          -2.7598605156 -8.8065700531 -0.83255696297 -2.4376232624 -10.538758278 0.7089125514
          0.025311509147 -17.846652985 -0.45239502192 -2.0749680996 -13.548952103 -0.68862843513
          -1.2465108633 -15.460747719 2.0875981477e-07 -0.59695899487 -14.74230957 0.96878373623
          8.1510801315 -21.187021255 0.32183507085 -1.7401739359 -12.531628609 1.2072645426
          5.0985708237 -20.94430542 3.2795247762e-07 -3.2571187019 -5.406888485 0.67424619198
          -2.7208116055 -8.7934236526 -2.8001064578e-08 0.051736630499 -17.845159531 2.8228072324e-07
          -2.04347682 -13.533349991 1.2643427283e-07 -2.4415986538 -12.041489601 -1.5968254805
          2.3516337872 -20.880142212 -0.69521582127 14.565254211 -21.804283142 0.70152044296
          0 0 0 -1.2776015997 -15.474666595 0.58033800125
          -2.1163547039 -2.8976671696 -0.45404860377 -2.3430206776 -11.973269463 -0.80290937424
          1.5667824745 -17.556806564 0.71622735262 11.290658951 -21.46827507 0.67567670345
          2.3692376614 -20.834169388 -0.34479603171 15.707176208 -25.15820694 -0.67023086548
          0 0 0 -2.4833519459 -10.654229164 1.3949689865
          15.724898338 -25.172561646 -0.33410689235 -2.1236886978 -4.0947499275 -0.44155451655
          12.38756752 -24.833969116 -0.64880782366 5.0935153961 -20.945232391 0.31788885593
          0 0 0 -2.7598605156 -8.8065700531 0.83255690336
          12.404845238 -24.84869194 -0.32262596488 -2.5268549919 -3.8214595318 -0.28487148881
          0.025311686099 -17.846652985 0.45239558816 -2.0749680996 -13.548952103 0.68862873316
          8.1316509247 -21.175333023 0.6472068429 -2.3045477867 -11.967104912 2.6163146316e-08
          2.3760170937 -20.831033707 3.4543268157e-07 -3.0869703293 -5.7164430618 1.3334925175
          -0.85669237375 -18.657131195 -1.1244975328 -2.4510622025 -7.3636450768 -1.8567473888
          9.1477985382 -24.54561615 -0.62468671799 -1.7646838427 -16.586349487 -1.3083570004
          15.730553627 -25.17691803 3.1192493566e-07 0 0 0
          -0.79941469431 -18.564893723 -0.55828917027 12.41075325 -24.852203369 3.4256530057e-07
          -2.4291622639 -3.9060389996 -1.4062202069e-07 9.1636514664 -24.554029465 -0.31048712134
          -2.3189067841 -7.2414498329 -0.91339641809 -1.6945135593 -16.515207291 -0.66021221876
          -1.3322919607 -15.577486038 1.1688922644 -0.77066081762 -18.5501194 2.7662659363e-07
          -2.1020896435 -14.950714111 -1.5013636351 -2.3430206776 -11.973269463 0.80290943384
          0.61897546053 -21.176307678 -0.8992652297 9.1693983078 -24.554956436 3.7167643541e-07
          5.0775442123 -20.952331543 0.63693630695 2.3692376614 -20.834171295 0.34479671717
          -1.6655710936 -16.499633789 1.8889267039e-07 -2.2627122402 -7.2094507217 -1.5612145887e-07
          -2.8212928772 -8.9515609741 1.6551892757 15.724898338 -25.172561646 0.3341075182
          5.9958219528 -24.317968369 -0.6168025136 -1.9935138226 -14.927852631 -0.75490236282
          -2.0457980633 -10.603847504 -1.74266541 0.6618052721 -21.085231781 -0.43719470501
          -0.017151940614 -17.943054199 0.93405973911 -2.1378004551 -13.638685226 1.360858798
          0 0 0 -1.8380749226 -10.704236984 -0.863920331
          12.404845238 -24.84869194 0.32262665033 -2.5268547535 -3.8214595318 0.28487125039
          6.0104556084 -24.309053421 -0.30779054761 -1.9594614506 -14.922609329 8.2915455835e-08
          0.68622398376 -21.080856323 3.5418068478e-07 -0.79941445589 -18.564893723 0.55828970671
          6.0154523849 -24.307188034 3.9785570038e-07 -1.7895370722 -10.685542107 -1.0639826797e-07
          9.1636514664 -24.554029465 0.3104878664 -2.3189067841 -7.2414498329 0.91339612007
          -1.6945133209 -16.515207291 0.66021263599 -2.441598177 -12.041489601 1.5968255997
          2.3516340256 -20.880142212 0.69521653652 3.152589798 -24.220600128 -0.67493951321
          15.707176208 -25.15820694 0.67023152113 0 0 0
          -1.7106711864 -13.57516861 -1.5256168842 -2.1236884594 -4.0947499275 0.44155436754
          12.38756752 -24.833969116 0.64880847931 -1.9935135841 -14.927852631 0.75490248203
          0.66180545092 -21.085231781 0.43719542027 3.1700761318 -24.175611496 -0.33469581604
          -1.3320790529 -19.531751633 -1.2365726233 -1.517369628 -13.759691238 -0.75896644592
          -1.8380748034 -10.704236984 0.86392009258 6.0104556084 -24.309053421 0.30779132247
          -1.2567522526 -19.486619949 -0.62378036976 -0.30459624529 -21.75938797 -1.0716477633
          -1.759414196 -17.756120682 -1.3799071312 16.810161591 -28.531671524 -0.65166282654
          0 0 0 13.449980736 -28.215261459 -0.63070356846
          -0.85669195652 -18.657131195 1.1244980097 -2.451061964 -7.3636450768 1.8567471504
          9.1477985382 -24.54561615 0.62468749285 -1.6492166519 -17.778511047 -0.69461232424
          -0.24527873099 -21.683485031 -0.5327925086 -1.764683485 -16.586349487 1.308357358
          16.821659088 -28.545696259 -0.32479143143 0 0 0
          -1.4775029421 -13.75193119 -5.023876426e-08 3.1765165329 -24.171945572 4.2030362124e-07
          0.03045334667 -5.0751676559 0.007865334861 13.461578369 -28.229286194 -0.31376060843
          0.028187319636 -5.1878499985 -0.0019209887832 -1.2316458225 -19.473487854 2.5914846447e-07
          10.140594482 -27.9301548 -0.60781264305 -1.6219825745 -17.775686264 1.4848048124e-07
          -0.21994948387 -21.669555664 3.522161478e-07 16.826000214 -28.549835205 3.6928051372e-07
          0 0 0 0.031570021063 -8.4617872238 -0.0054713967256
          10.152869225 -27.938209534 -0.30220648646 13.465831757 -28.232574463 4.0592519213e-07
          -2.1020891666 -14.950714111 1.5013637543 0.61897575855 -21.176307678 0.89926594496
          0.026635399088 -5.1391105652 -3.1171899195e-07 0.029410880059 -9.0623493195 -0.0044207102619
          5.9958219528 -24.317968369 0.61680328846 -2.0457975864 -10.603847504 1.7426651716
          -1.4370753765 -16.306900024 -1.3077813387 1.315048933 -24.431444168 -0.86364424229
          -1.5173693895 -13.759691238 0.75896632671 3.1700761318 -24.175611496 0.33469665051
          -1.2710744143 -16.545215607 -0.6525799036 1.3582282066 -24.35017395 -0.42117735744
          -1.2567520142 -19.486619949 0.6237809062 10.157542229 -27.939128876 4.4127239107e-07
          0.029409274459 -8.9421949387 -2.9600221296e-07 6.9032654762 -27.69711113 -0.60027879477
          -1.6492164135 -17.778511047 0.69461262226 -0.24527850747 -21.683485031 0.53279322386
          16.821659088 -28.545696259 0.32479217649 0 0 0
          0.039112664759 -11.602981567 -0.014884971082 6.9159755707 -27.689277649 -0.29958856106
          13.461578369 -28.229286194 0.3137614131 0.040095523 -12.248731613 -0.00847148709
          -1.2419718504 -16.54706955 1.4237135915e-08 1.3803001642 -24.345153809 4.3409809791e-07
          0.028187546879 -5.1878504753 0.0019204115961 10.152869225 -27.938209534 0.30220735073
          6.9203591347 -27.687801361 4.7374194878e-07 0.040455922484 -12.19148159 -2.1427659647e-07
          3.1525900364 -24.220600128 0.67494040728 -0.8294069767 -22.469228745 -1.1404639482
          0.02941112034 -9.0623493195 0.0044201365672 -1.710670948 -13.57516861 1.525616765
          -1.3783380985 -20.506967545 -1.2300078869 -0.7510535717 -22.45693779 -0.57644659281
          -1.3320786953 -19.53175354 1.2365731001 -1.2725892067 -20.575563431 -0.62126457691
          -1.2710741758 -16.545215607 0.65257996321 1.3582284451 -24.35017395 0.4211782217
          -0.30459582806 -21.75938797 1.0716484785 -1.7594138384 -17.756120682 1.3799074888
          0.046801067889 -14.428599358 -0.01883026585 3.9695565701 -27.575315475 -0.65532106161
          16.810161591 -28.531671524 0.65166354179 0 0 0
          13.449981689 -28.215261459 0.63070440292 0.048289269209 -15.038602829 -0.010186838917
          -0.73034065962 -22.449150085 3.3961225654e-07 -1.1803790331 -18.884672165 -1.0908862352
          0.32578074932 -24.871026993 -1.0044234991 3.9868583679 -27.534692764 -0.32501012087
          0.030453640968 -5.0751676559 -0.0078657241538 -1.2525548935 -20.579797745 2.2549826895e-07
          6.9159755707 -27.689277649 0.29958951473 0.040095746517 -12.248731613 0.0084710698575
          0.38733649254 -24.818284988 -0.50095325708 -1.0464758873 -19.157728195 -0.54656118155
          10.140594482 -27.9301548 0.60781347752 0.048633717 -15.017028809 -1.3547635547e-07
          3.9925875664 -27.531812668 5.0224747383e-07 0.031570456922 -8.4617872238 0.0054708817042
          0.40897443891 -24.807365417 4.3749062684e-07 17.890527725 -31.928215027 -0.64267301559
          0 0 0 -1.0283169746 -19.17275238 9.1472259101e-08
          17.897195816 -31.944120407 -0.32041576505 0 0 0
          -0.75105327368 -22.45693779 0.57644724846 14.489163399 -31.616239548 -0.61948567629
          -1.4370750189 -16.306900024 1.3077814579 1.3150492907 -24.431444168 0.86364513636
          2.1497240067 -4.0400733948 0.36912113428 -1.2725889683 -20.575563431 0.62126505375
          14.496391296 -31.631824493 -0.30841416121 2.5567455292 -3.7775263786 0.25342130661
          6.9032654762 -27.69711113 0.60027974844 17.900468826 -31.948886871 4.2899316099e-07
          0.048289489001 -15.038602829 0.01018658001 11.115994453 -31.332609177 -0.59538727999
          2.5352010727 -7.3335294724 1.8574314117 3.9868583679 -27.534692764 0.32501113415
          0 0 0 2.0701775551 -27.700393677 -0.82184118032
          0.053960707039 -17.005397797 -0.020602473989 0.039113081992 -11.602981567 0.014884596691
          2.4058728218 -7.2009310722 0.91181892157 11.125634193 -31.342592239 -0.29628258944
          14.499329567 -31.63577652 4.7271868198e-07 0.38733676076 -24.818284988 0.50095415115
          0.055085755885 -17.568252563 -0.010900408961 2.1149282455 -27.634328842 -0.40222734213
          -1.0464756489 -19.157728195 0.54656136036 2.458003521 -3.866350174 -2.0727235039e-07
          -0.95000082254 -23.223630905 -1.0623075962 11.129402161 -31.344463348 5.1554007996e-07
          -0.82940649986 -22.469228745 1.1404646635 2.3484082222 -7.1696023941 -3.1493652841e-07
          0.055230248719 -17.574792862 -5.0792490214e-08 -0.8525275588 -23.330314636 -0.53921049833
          2.1348512173 -27.630464554 5.2270632978e-07 -1.3783376217 -20.506967545 1.2300083637
          17.897195816 -31.944120407 0.32041662931 7.803647995 -31.093135834 -0.58577698469
          -0.91524410248 -21.380813599 -0.88587069511 0 0 0
          2.1434743404 -10.592830658 1.7459173203 -0.25970596075 -25.396463394 -1.0226686001
          1.9304134846 -10.697768211 0.8647877574 7.8151597977 -31.088989258 -0.29247587919
          14.49639225 -31.631826401 0.30841511488 -0.81136995554 -21.666786194 -0.44674178958
          -0.18086318672 -25.417579651 -0.51861310005 2.5567455292 -3.7775266171 -0.25342175364
          0.046801485121 -14.428599358 0.018830044195 3.9695568085 -27.575315475 0.65532207489
          -0.83834439516 -23.344387054 3.1485274121e-07 -1.1803786755 -18.884672165 1.0908863544
          0.32578122616 -24.871026993 1.0044244528 7.8188633919 -31.088882446 5.5565726598e-07
          11.125634193 -31.342592239 0.29628360271 -0.80178076029 -21.696805954 1.8155033388e-07
          2.4058730602 -7.2009310722 -0.91181951761 1.8812717199 -10.678249359 -2.4136170396e-07
          0.055085983127 -17.568252563 0.010900318623 2.1149282455 -27.634328842 0.40222838521
          -0.16414454579 -25.417072296 4.3158590302e-07 1.0276370049 -27.988794327 -0.92087513208
          0.0612443313 -19.424629211 -0.021517546847 1.0910604 -27.962747574 -0.46120256186
          0.061648789793 -19.932346344 -0.011240566149 17.890529633 -31.928215027 0.64267390966
          0 0 0 -0.85252726078 -23.330314636 0.53921115398
          1.8181818724 -13.578353882 1.519754529 4.8018665314 -30.946115494 -0.6338621974
          1.6200504303 -13.771847725 0.75536686182 14.489163399 -31.616239548 0.61948662996
          2.1497240067 -4.0400738716 -0.36912161112 4.8199081421 -30.913225174 -0.31452864408
          7.8151597977 -31.088989258 0.29247698188 -0.81136971712 -21.666786194 0.44674217701
          1.9304136038 -10.697768211 -0.86478823423 -0.18086290359 -25.417579651 0.51861393452
          1.109487772 -27.956575394 5.3313004855e-07 0.061506792903 -19.962882996 4.3166995312e-08
          11.115994453 -31.332609177 0.59538835287 2.5352013111 -7.3335294724 -1.8574320078
          2.0701780319 -27.700393677 0.82184225321 1.5796797276 -13.763789177 -1.5902935502e-07
          0.053961135447 -17.005397797 0.020602414384 4.8250031471 -30.912124634 5.9184628753e-07
          18.961410522 -35.353675842 -0.64120954275 0 0 0
          -0.95000034571 -23.223630905 1.0623083115 1.0910607576 -27.962747574 0.46120363474
          0 0 0 15.514273643 -35.043296814 -0.61332297325
          -0.63679277897 -23.85354805 -0.70569574833 0.061649020761 -19.932346344 0.011240660213
          2.1178405285 -2.8516571522 -0.51130115986 -0.48364835978 -25.930675507 -0.89269900322
          18.964471817 -35.373378754 -0.31984883547 7.803647995 -31.093135834 0.58577805758
          15.518378258 -35.06244278 -0.30560690165 2.3984577656 -2.8754043579 -0.11986090988
          -0.91524362564 -21.380813599 0.88587111235 -0.5566855073 -24.131513596 -0.35863545537
          2.1434748173 -10.592830658 -1.7459177971 2.8780708313 -30.983228683 -0.7704680562
          1.6200506687 -13.771847725 -0.75536715984 -0.25970542431 -25.396463394 1.0226695538
          1.5552492142 -16.319162369 1.2937282324 4.8199081421 -30.913225174 0.31452983618
          -0.39613190293 -26.060770035 -0.45539078116 1.385258317 -16.56803894 0.64489251375
          2.9250714779 -30.936416626 -0.37863427401 12.078689575 -34.759780884 -0.58553993702
          18.967031479 -35.379459381 4.8987419632e-07 3.1499595642 -5.6668410301 1.2989379168
          0 0 0 12.08686924 -34.773792267 -0.29166325927
          3.3385076523 -5.3506259918 0.65690892935 15.520363808 -35.067779541 5.4189177945e-07
          0.36338314414 -28.328935623 -0.89214193821 -0.55201095343 -24.174137115 2.8284867426e-07
          -0.38560837507 -26.084215164 4.1589353827e-07 0.069431491196 -21.771978378 -0.022225800902
          2.3478767872 -2.9473233223 -4.0894978071e-08 0.44034510851 -28.377719879 -0.45395222306
          2.9433259964 -30.934904099 6.2084438923e-07 0.069034226239 -22.218109131 -0.011524683796
          1.3556843996 -16.570083618 -7.1428942761e-08 1.0276374817 -27.988794327 0.92087620497
          12.089994431 -34.777378082 5.9359899751e-07 0.061244778335 -19.424629211 0.021517667919
          3.2898197174 -5.3384079933 -2.1158957964e-07 8.6982831955 -34.513751984 -0.5710696578
          18.964471817 -35.373378754 0.31984981894 0.45432636142 -28.38489151 5.3500662034e-07
          2.9161570072 -8.9234857559 1.6609067917 1.81818223 -13.578353882 -1.5197547674
          0.068587303162 -22.266878128 1.4530240833e-07 4.8018670082 -30.946115494 0.63386338949
          0 0 0 8.7096071243 -34.515621185 -0.28525426984
          2.8546621799 -8.7744245529 0.83571618795 15.518378258 -35.06244278 0.30560797453
          -0.55668520927 -24.131513596 0.35863602161 -0.39613160491 -26.060770035 0.45539161563
          2.398458004 -2.8754045963 0.11986076832 2.9250717163 -30.936416626 0.3786354959
          1.3852585554 -16.56803894 -0.64489263296 12.086870193 -34.773792267 0.29166445136
          8.7127552032 -34.517654419 6.4289434931e-07 1.7844760418 -31.122816086 -0.82444858551
          1.3103981018 -18.902589798 1.0694385767 2.8145017624 -8.7615375519 -1.87133125e-07
          3.3385076523 -5.3506264687 -0.65690940619 1.1729972363 -19.186601639 0.5352255106
          0.44034540653 -28.377719879 0.45395329595 1.8483825922 -31.122413635 -0.41463321447
          0.069034464657 -22.218109131 0.011524979956 5.6472716331 -34.340934753 -0.60840576887
          18.961410522 -35.353675842 0.64121055603 0 0 0
          2.5472285748 -12.032967567 1.6029542685 5.667011261 -34.318569183 -0.30206152797
          15.514273643 -35.043296814 0.61332404613 2.4450318813 -11.965846062 0.80637562275
          -0.63679230213 -23.85354805 0.70569634438 1.8644655943 -31.121700287 6.3971771169e-07