<?xml version="1.0"?>
<VTKFile type="UnstructuredGrid" version="0.1" byte_order="LittleEndian" header_type="UInt32" compressor="vtkZLibDataCompressor">
  <UnstructuredGrid>
    <Piece NumberOfPoints="6405" NumberOfCells="4800">
      <PointData>
        <DataArray type="Float32" Name="DISPLACEMENT" NumberOfComponents="3" ComponentName0="X-DISPLACEMENT" ComponentName1="Y-DISPLACEMENT" ComponentName2="Z-DISPLACEMENT" format="ascii" RangeMin="0" RangeMax="277.24579351">
          0 0 0 0 0 0
          2.3794341087 -1.519557476 -1.0837095976 0 0 0
          1.4571026564 -0.93451446295 -0.80284917355 0 0 0
          2.1856505871 -1.6836658716 -0.42676821351 1.2703895569 -1.067127943 -0.32749134302
          0 0 0 4.229329586 -2.902946949 -1.082734704
          0 0 0 4.1820006371 -3.0862457752 -0.55791354179
          2.9112768173 -2.456633091 -0.88225328922 0 0 0
          0 0 0 2.1951165199 -1.7342717648 5.3131856248e-07
          0.98663771152 -0.66666650772 -0.58316355944 1.2664511204 -1.0900372267 2.4359923145e-07
          2.8572943211 -2.6017665863 -0.44980928302 0.84550261497 -0.78460007906 -0.240035519
          4.1371126175 -3.1366808414 1.3547387425e-06 1.9736891985 -2.1216890812 -0.67289727926
          0 0 0 2.8209369183 -2.6480312347 8.0474933384e-07
          1.9135024548 -2.2495975494 -0.3444686532 0 0 0
          5.8520503044 -4.6614408493 -0.98699855804 0 0 0
          0.84068214893 -0.80199432373 -1.3904904961e-07 0 0 0
          0 0 0 2.1856505871 -1.683665514 0.4267693162
          4.2487592697 -4.242082119 -0.82734596729 5.8818230629 -4.7882556915 -0.50339686871
          0.4753780365 -0.51880693436 -0.36100885272 1.2703899145 -1.067127347 0.32749190927
          4.273832798 -4.3609666824 -0.42147552967 0.36097928882 -0.63601446152 -0.16321073472
          1.8834214211 -2.2867939472 1.4960268402e-07 4.1820011139 -3.0862448215 0.55791628361
          0 0 0 0 0 0
          1.0794632435 -1.9380999804 -0.48420640826 2.9822423458 -3.9258847237 -0.66910654306
          5.8686966896 -4.8337874413 2.4586545351e-06 2.8572952747 -2.6017653942 0.44981098175
          2.9789805412 -4.0360612869 -0.340562433 0.84550321102 -0.78459948301 0.24003535509
          4.2665266991 -4.3997783661 1.6395872535e-06 1.021879077 -2.055727005 -0.24654383957
          0.34913212061 -0.65134334564 -6.3646280068e-07 0 0 0
          7.3088326454 -6.6193108559 -0.85510069132 0 0 0
          5.4979286194 -6.2429380417 -0.74643748999 1.9135035276 -2.2495961189 0.34446904063
          7.3612141609 -6.7043309212 -0.43332752585 2.3794350624 -1.5195567608 1.0837109089
          0 0 0 0 0 0
          1.0010732412 -2.0904812813 -6.5369255253e-07 2.969263792 -4.0693202019 7.3372262932e-07
          -0.024286901578 -0.55031484365 -0.16799893975 5.5439591408 -6.3275794983 -0.37632334232
          1.4571037292 -0.93451344967 0.80285000801 1.787440896 -3.7115828991 -0.51352632046
          0 0 0 5.8818240166 -4.7882537842 0.50340181589
          -0.09946539253 -0.67081511021 -0.089893460274 1.7651652098 -3.8138668537 -0.26167860627
          4.2738347054 -4.3609647751 0.42147886753 0.3609803617 -0.63601362705 0.16320961714
          3.9776377678 -5.9446101189 -0.63554239273 0.14939656854 -1.8804541826 -0.28698480129
          7.3638339043 -6.7342944145 3.7835791318e-06 4.2293314934 -2.9029450417 1.0827376842
          0 0 0 0 0 0
          3.9957947731 -6.0261826515 -0.32059025764 2.9112789631 -2.4566307068 0.88225519657
          5.5520887375 -6.3566002846 2.717724783e-06 0.097283825278 -1.9992743731 -0.15186554193
          0.9866387248 -0.66666513681 0.58316373825 -0.11267077923 -0.6981896162 -1.3856054011e-06
          1.7556769848 -3.8429305553 -3.1631341812e-07 2.9789822102 -4.0360593796 0.34056395292
          1.0218807459 -2.0557255745 0.24654258788 3.9985826015 -6.0528635979 1.5717184851e-06
          1.9736913443 -2.1216862202 0.67289787531 0.084762103856 -2.0335488319 -1.6721951397e-06
          2.5507509708 -5.7329120636 -0.53028720617 7.3612155914 -6.7043290138 0.43333515525
          5.8520531654 -4.6614375114 0.98700380325 0 0 0
          8.6006793976 -8.710568428 -0.74547868967 0 0 0
          0 0 0 0.50609141588 -3.5898091793 -0.3649520874
          2.5443820953 -5.8069047928 -0.26769739389 8.6504688263 -8.7646493912 -0.37505555153
          6.6462607384 -8.3729152679 -0.67556172609 5.5439610481 -6.3275771141 0.37632882595
          -0.69097620249 -0.70751613379 -0.0025926260278 0 0 0
          4.2487626076 -4.2420783043 0.82734954357 0.47537943721 -0.51880526543 0.36100816727
          0.4650503397 -3.6838686466 -0.19017288089 -0.099464029074 -0.67081403732 0.089890874922
          -0.79090601206 -0.81779497862 -0.022043077275 1.7651671171 -3.8138647079 0.26167798042
          6.6908221245 -8.4299478531 -0.33806315064 3.9957969189 -6.0261802673 0.32059344649
          2.5435874462 -5.8316864967 3.0071598189e-07 8.6590108871 -8.7844524384 5.3093226597e-06
          -0.75148206949 -2.005884409 -0.21471774578 0.097285650671 -1.9992727041 0.15186221898
          0 0 0 4.9363455772 -8.1020336151 -0.60367661715
          1.0794657469 -1.9380968809 0.48420527577 2.9822454453 -3.925880909 0.6691082716
          0.45635646582 -3.7116751671 -1.5360017187e-06 6.702712059 -8.4500598907 4.0288914533e-06
          -0.80820727348 -0.85292768478 -2.6466527743e-06 -0.8203060627 -2.0853943825 -0.097448654473
          4.9601593018 -8.1577987671 -0.30202615261 7.3088364601 -6.6193070412 0.85510849953
          0 0 0 1.0512222052 -5.5828371048 -0.44777527452
          5.4979324341 -6.2429337502 0.74644315243 -0.82336974144 -2.1267368793 -3.2348957575e-06
          1.026712656 -5.645160675 -0.22384555638 4.9674987793 -8.1773557663 2.6789084586e-06
          -0.02428538911 -0.55031245947 0.16799673438 2.5443842411 -5.8069019318 0.26769804955
          3.3445100784 -7.9071154594 -0.53801649809 8.6504707336 -8.7646465302 0.37506622076
          -0.5487832427 -3.64783144 -0.32747519016 1.7874441147 -3.7115786076 0.51352584362
          0 0 0 0.46505245566 -3.6838665009 0.19016984105
          3.3501632214 -7.9567818642 -0.26921319962 -0.79090410471 -0.81779372692 0.022037969902
          -0.59020590782 -3.7040934563 -0.15531015396 6.6908245087 -8.4299449921 0.33807128668
          3.9776418209 -5.9446048737 0.6355457902 0.14939932525 -1.8804504871 0.28698155284
          9.7492837906 -10.871551514 -0.66359806061 0 0 0
          1.0235885382 -5.6675710678 -1.1082948959e-06 7.6984481812 -10.566615105 -0.61848813295
          9.7891073227 -10.906857491 -0.33300018311 0 0 0
          -1.5875710249 -0.90207445621 0.038121692836 7.735162735 -10.605575562 -0.30855640769
          3.3528757095 -7.9755578041 1.2269485978e-06 -1.7248312235 -0.95305627584 0.0039985389449
          -0.82030379772 -2.0853924751 0.097442269325 -0.59093004465 -3.7363693714 -3.1806516745e-06
          4.9601616859 -8.1577959061 0.30203157663 5.843568325 -10.318056107 -0.56985867023
          -1.6790570021 -2.1985743046 -0.2291560173 9.7983646393 -10.920203209 7.0219061854e-06
          0 0 0 -1.7497246265 -2.2187435627 -0.10236071795
          5.8685107231 -10.357134819 -0.28428927064 7.7461471558 -10.61974144 5.5529167184e-06
          -1.7346303463 -0.99353295565 -4.6346767704e-06 2.550755024 -5.7329068184 0.53028804064
          1.7537418604 -7.7535071373 -0.49092310667 8.600684166 -8.7105636597 0.74548953772
          0 0 0 -0.17630077899 -5.5552887917 -0.39695212245
          1.0267152786 -5.645157814 0.22384341061 0.50609493256 -3.5898046494 0.36494922638
          6.6462659836 -8.3729104996 0.67557007074 -0.69097441435 -0.70751285553 0.0025878974702
          -0.19119809568 -5.6017589569 -0.19556468725 1.7499250174 -7.7955551147 -0.24148724973
          3.350165844 -7.9567785263 0.26921570301 -0.59020334482 -3.7040910721 0.15530389547
          5.8763213158 -10.370930672 4.0222366806e-06 -1.7508920431 -2.2487032413 -5.3412441048e-06
          4.125711441 -10.139603615 -0.52241897583 -1.5163658857 -3.8271822929 -0.34436315298
          -0.75147885084 -2.005879879 0.21471147239 9.7891101837 -10.90685463 0.3330142796
          4.9363503456 -8.1020278931 0.60368221998 0 0 0
          1.7503964901 -7.8112239838 -3.4997162857e-07 -0.18938417733 -5.6228117943 -2.7808705454e-06
          4.1397576332 -10.174556732 -0.26118418574 7.735165596 -10.605572701 0.30856755376
          -1.5520224571 -3.8406176567 -0.16152088344 -1.7248288393 -0.95305484533 -0.00400764402
          1.0512267351 -5.5828318596 0.44777333736 4.1434698105 -10.187022209 2.403363851e-06
          5.8685135841 -10.357131958 0.28429737687 -1.7497218847 -2.2187416553 0.10235016793
          -1.5489741564 -3.8630795479 -5.3115650189e-06 10.789762497 -13.062988281 -0.60875821114
          0 0 0 10.818253517 -13.089661598 -0.30512651801
          3.3445148468 -7.9071092606 0.53801912069 8.6696386337 -12.782139778 -0.57469844818
          -0.54877912998 -3.6478261948 0.32746908069 0.30628016591 -7.6665387154 -0.41780135036
          -1.0076304674 -1.277751565 0.53701108694 -0.19119516015 -5.6017560959 0.19555917382
          1.7499281168 -7.7955517769 0.24148657918 0 0 0
          8.6971597672 -12.81254673 -0.2862765193 0.30233874917 -7.7085676193 -0.21236483753
          -1.008800149 -1.3753486872 0.14057275653 2.474820137 -10.00345993 -0.48163038492
          -1.2464078665 -5.699092865 -0.40123322606 9.7492895126 -10.871545792 0.66361236572
          0 0 0 7.6984539032 -10.566608429 0.61849945784
          10.826545715 -13.099914551 8.9093909992e-06 -1.2641555071 -5.7166419029 -0.19022162259
          2.4817669392 -10.033755302 -0.24019752443 -1.5875688791 -0.90206992626 -0.038130488247
          6.6950588226 -12.555184364 -0.5354398489 -2.3771369457 -2.4240348339 -0.11935549974
          0 0 0 4.1397604942 -10.174552917 0.26118904352
          -1.5520194769 -3.8406152725 0.16151037812 8.7058753967 -12.823531151 7.2699972407e-06
          0.30469664931 -7.7206473351 -2.1080984425e-06 6.7184944153 -12.585903168 -0.26660868526
          -2.4512650967 -2.4773614407 -0.081547506154 -0.97906857729 -1.3790986538 -3.5623447729e-06
          5.8435740471 -10.318049431 0.56986689568 -1.6790533066 -2.1985690594 0.22914554179
          2.4844970703 -10.043746948 6.5737020805e-07 -1.2577233315 -5.7357969284 -4.917158094e-06
          1.7537472248 -7.7535009384 0.49092251062 6.7256140709 -12.596234322 5.5696282288e-06
          -2.3798341751 -2.4958441257 -7.1646040851e-06 -0.1762958765 -5.5552825928 0.39694666862
          10.818256378 -13.089658737 0.3051443994 4.8570270538 -12.401477814 -0.49597620964
          0 0 0 -2.4410350323 -4.0670418739 -0.38148519397
          4.8749446869 -12.42713356 -0.24756577611 8.6971635818 -12.812542915 0.28629109263
          -1.0087999105 -1.3753472567 -0.14057977498 0.3023417592 -7.7085647583 0.2123606205
          -2.4849455357 -4.0514779091 -0.18404074013 4.1257171631 -10.139596939 0.52242392302
          0.83574479818 -9.9048624039 -0.43358281255 2.4817700386 -10.033752441 0.24019886553
          -1.516361475 -3.8271763325 0.34435275197 -1.2641524076 -5.7166390419 0.19021184742
          -0.8919223547 -7.7694292068 -0.43304163218 0.83120346069 -9.9309234619 -0.22090755403
          4.8798413277 -12.435545921 3.7867937408e-06 6.7184972763 -12.585900307 0.26661986113
          -2.4512636662 -2.4773588181 0.081533290446 -0.90365117788 -7.7828030586 -0.20656421781
          -2.4786257744 -4.0611124039 -7.7971890278e-06 11.763237953 -15.268601418 -0.57883518934
          0 0 0 -0.6637711525 -1.5370018482 0.38662171364
          0.8347440958 -9.9391136169 -1.2539449017e-06 3.1268923283 -12.304238319 -0.46680465341
          9.57949543 -15.002080917 -0.54397666454 10.789769173 -13.062981606 0.60877627134
          0 0 0 0 0 0
          -0.89490067959 -7.8004469872 -4.2940587264e-06 -2.1930966377 -5.9637303352 -0.46019497514
          11.780692101 -15.295156479 -0.28965967894 3.1374285221 -12.32085228 -0.23411045969
          9.5977258682 -15.031852722 -0.27057775855 8.6696443558 -12.782132149 0.57471317053
          -0.62324053049 -1.5574353933 0.16643516719 0.30628553033 -7.6665320396 0.41779711843
          -1.0076326132 -1.277749896 -0.53701728582 -2.2212965488 -5.9420552254 -0.2167237401
          4.8749475479 -12.427130699 0.2475734055 -2.4849424362 -4.0514750481 0.18402524292
          7.4851956367 -14.795663834 -0.50354683399 2.4748258591 -10.003453255 0.48163181543
          -1.2464027405 -5.6990861893 0.4012234807 0 0 0
          -1.1823539734 -2.7213969231 0.31537866592 11.787444115 -15.304941177 1.0961462067e-05
          -0.63440275192 -1.5907473564 -2.9052109767e-06 3.1416971684 -12.327856064 1.9016694068e-06
          7.5055208206 -14.824510574 -0.24990461767 6.6950654984 -12.555176735 0.53545117378
          9.6038484573 -15.042030334 9.1636447905e-06 -2.3771352768 -2.4240291119 0.11934249103
          -2.213000536 -5.9527549744 -7.4592730925e-06 -1.2231841087 -2.8337836266 0.14860481024
          0.83120661974 -9.9309196472 0.22090511024 -0.90364789963 -7.7827997208 0.20655567944
          -0.46638661623 -9.9673404694 -0.46361833811 7.5112433434 -14.833438873 7.3077781053e-06
          -1.2218763828 -2.853048563 -5.4273482419e-06 -0.46956816316 -9.9686832428 -0.225461483
          5.5213398933 -14.680448532 -0.46634972095 0 0 0
          -1.7954431772 -4.0636758804 0.19377052784 11.780694962 -15.295152664 0.28968164325
          -0.62324023247 -1.5574344397 -0.16644063592 3.13743186 -12.320848465 0.23411431909
          5.5414361954 -14.70069313 -0.23156313598 4.8570337296 -12.401471138 0.49598398805
          9.5977296829 -15.031848907 0.27059614658 1.4129754305 -12.22879982 -0.46618148685
          -1.865532279 -8.0282077789 -0.51322454214 -2.4410302639 -4.0670351982 0.38146981597
          -1.8635112047 -4.2136764526 0.051652804017 -2.221293211 -5.9420523643 0.21670889854
          1.4138633013 -12.23370266 -0.230489254 -1.8802149296 -7.9979186058 -0.2427701205
          -0.45948886871 -9.9812698364 -3.434848395e-06 0.83575069904 -9.9048547745 0.43358054757
          7.5055241585 -14.82450676 0.24991928041 -0.89191669226 -7.7694220543 0.43303310871
          5.5462007523 -14.707269669 5.3871858654e-06 -1.2231837511 -2.8337817192 -0.14861558378
          -1.8651314974 -4.225933075 -7.1142303568e-06 1.4175601006 -12.238472939 -8.7930779102e-08
          -1.8685582876 -8.0081205368 -6.8253807513e-06 -2.3725326061 -5.9842720032 0.035610772669
          3.719630003 -14.641794205 -0.45121663809 11.763244629 -15.268594742 0.57885730267
          0 0 0 -0.46956467628 -9.9686794281 0.22545470297
          -0.66377282143 -1.537001133 -0.38662698865 -2.4593155384 -6.1316461563 -0.075013488531
          3.1268987656 -12.30423069 0.46680867672 9.5795021057 -15.002073288 0.54399514198
          3.735626936 -14.648035049 -0.22458255291 12.710349083 -17.496101379 -0.57034820318
          0 0 0 -2.1930913925 -5.9637231827 0.46018016338
          12.717814445 -17.528785706 -0.28484281898 -0.45996299386 -1.5411864519 0.34501793981
          10.452413559 -17.231847763 -0.52584266663 5.5414400101 -14.700689316 0.23157396913
          0 0 0 -1.8635110855 -4.2136740685 -0.051666986197
          10.461748123 -17.266973495 -0.26134261489 -0.39465498924 -1.5403606892 0.14687885344
          1.413867116 -12.233698845 0.23048914969 -1.8802114725 -7.9979152679 0.24275654554
          7.4852027893 -14.795656204 0.50356167555 -2.382619381 -6.0899763107 -8.3839931904e-06
          3.7398741245 -14.653022766 3.4043882806e-06 -1.1823557615 -2.7213952541 -0.31538841128
          0.013476721942 -12.252983093 -0.48436650634 -0.88206768036 -2.8700830936 0.37221592665
          8.2230186462 -17.029947281 -0.47479474545 -1.4872895479 -10.206843376 -0.54650950432
          12.722730637 -17.54003334 1.3166545614e-05 0 0 0
          0.022553667426 -12.246983528 -0.23904642463 10.465424538 -17.278106689 1.1213920516e-05
          -0.39828583598 -1.5545629263 -2.0269869765e-06 8.2385778427 -17.062654495 -0.23529584706
          -0.87407553196 -2.9100596905 0.19962666929 -1.4852473736 -10.173285484 -0.26250916719
          -0.46638035774 -9.96733284 0.46361169219 0.031514298171 -12.250392914 -2.2230046852e-06
          -2.698130846 -8.3380231857 -0.54682165384 -2.4593150616 -6.131644249 0.074996970594
          2.0376589298 -14.620976448 -0.46958750486 8.2427501678 -17.071458817 9.2118743851e-06
          5.5213465691 -14.680440903 0.46636068821 3.7356307507 -14.648031235 0.22458942235
          -1.4707282782 -10.180868149 -5.8863747654e-06 -0.86313909292 -2.9338011742 -4.1165931179e-06
          -1.7954441309 -4.0636734962 -0.19378361106 12.717817307 -17.528781891 0.28486919403
          6.1025910378 -16.935894012 -0.42811563611 -2.7229979038 -8.3056583405 -0.28133898973
          -1.3224852085 -4.288090229 0.33903706074 2.0510370731 -14.615402222 -0.23003174365
          1.4129823446 -12.228792191 0.46618160605 -1.8655263186 -8.0282001495 0.51321101189
          0 0 0 -1.3448150158 -4.3784828186 0.18041940033
          10.461751938 -17.266969681 0.26136508584 -0.39465510845 -1.5403603315 -0.14688274264
          6.1219305992 -16.956184387 -0.21303702891 -2.7011942863 -8.2950115204 -9.3290500445e-06
          2.0562598705 -14.617314339 1.3566195776e-06 0.022557446733 -12.246979713 0.23904199898
          6.1256175041 -16.961763382 7.1709082476e-06 -1.3438762426 -4.4065532684 -5.9538415371e-06
          8.2385816574 -17.062650681 0.2353143096 -0.87407594919 -2.9100592136 -0.19963473082
          -1.4852437973 -10.17328167 0.26249745488 -2.3725323677 -5.9842686653 -0.03562489152
          3.7196371555 -14.641786575 0.45122364163 4.2252449989 -16.944139481 -0.41587269306
          12.710356712 -17.496091843 0.57037466764 0 0 0
          -1.7111672163 -5.9970293045 0.29561504722 -0.45996496081 -1.5411866903 -0.34502187371
          10.452421188 -17.231840134 0.52586525679 -2.722994566 -8.3056545258 0.28132042289
          2.0510411263 -14.615397453 0.23003445566 4.2449436188 -16.944820404 -0.20749758184
          -1.0828888416 -12.473566055 -0.55440139771 -1.738452673 -6.132422924 0.1398152411
          -1.3448153734 -4.3784818649 -0.18043100834 6.1219344139 -16.956180573 0.21305142343
          -1.0667389631 -12.445846558 -0.26633638144 0.53145641088 -14.628912926 -0.47874113917
          -2.386705637 -10.547665596 -0.62662154436 13.663331985 -19.772424698 -0.57832324505
          0 0 0 11.315159798 -19.502084732 -0.52033048868
          0.013483647257 -12.252975464 0.48436206579 -0.88207012415 -2.8700833321 -0.37222355604
          8.2230262756 -17.029939651 0.47481334209 -2.3773949146 -10.497660637 -0.31070798635
          0.54303079844 -14.617288589 -0.23952253163 -1.4872831106 -10.206834793 0.54649782181
          13.662683487 -19.81451416 -0.28842487931 0 0 0
          -1.7597740889 -6.1647992134 -7.412674222e-06 4.2484588623 -16.947471619 5.1000051826e-06
          -0.35642704368 -1.5059945583 0.2792994082 11.316714287 -19.545711517 -0.25872197747
          -0.28248852491 -1.485912323 0.12044470757 -1.0543630123 -12.449602127 -4.6335744628e-06
          8.9381685257 -19.286075592 -0.45634186268 -2.3650047779 -10.49317646 -8.4909570433e-06
          0.54997164011 -14.615272522 -8.1722384948e-07 13.665688515 -19.828416824 1.5505820556e-05
          0 0 0 -0.63688492775 -2.8604857922 0.35483327508
          8.9477367401 -19.326499939 -0.22617077827 11.318429947 -19.559213638 1.3392559595e-05
          -2.6981253624 -8.3380146027 0.54680353403 2.0376665592 -14.620968819 0.46959024668
          -0.28063616157 -1.4909652472 -1.2722481415e-06 -0.59206020832 -2.857968092 0.18753989041
          6.1025986671 -16.935884476 0.42813017964 -1.3224872351 -4.2880907059 -0.33904787898
          -1.9647756815 -7.9296412468 0.30187520385 2.5865821838 -16.974822998 -0.44058966637
          -1.7384524345 -6.1324214935 -0.13982978463 4.2449474335 -16.944816589 0.20750781894
          -2.0161585808 -8.1331834793 0.087128549814 2.6043639183 -16.960836411 -0.21846744418
          -1.0667352676 -12.445842743 0.26632711291 8.9511079788 -19.337245941 1.1249068848e-05
          -0.57686936855 -2.8649368286 -2.7803764624e-06 6.6195588112 -19.169643402 -0.39763757586
          -2.3773913383 -10.497656822 0.31069105864 0.54303461313 -14.617284775 0.2395208627
          13.662687302 -19.814510345 0.28845590353 0 0 0
          -0.89448571205 -4.2526965141 0.39699053764 6.6343474388 -19.194900513 -0.19767165184
          11.316718102 -19.545707703 0.25874876976 -0.87129920721 -4.2849326134 0.20972187817
          -2.0335350037 -8.1465654373 -8.4528865045e-06 2.6094942093 -16.960031509 2.9772841117e-06
          -0.28248885274 -1.4859124422 -0.12044718862 8.9477405548 -19.326496124 0.22619332373
          6.636838913 -19.200614929 9.1055881057e-06 -0.8659285903 -4.3012952805 -4.3095274123e-06
          4.2252526283 -16.944129944 0.41588303447 -0.6536860466 -14.788899422 -0.53072494268
          -0.59206086397 -2.8579678535 -0.18754543364 -1.7111678123 -5.9970283508 -0.29562869668
          -2.0083851814 -12.808493614 -0.62439721823 -0.6339789629 -14.766191483 -0.2600928247
          -1.0828820467 -12.473557472 0.55439203978 -1.98493433 -12.768155098 -0.30560353398
          -2.0161581039 -8.1331806183 -0.087145239115 2.604367733 -16.960832596 0.21847338974
          0.53146362305 -14.628904343 0.47873938084 -2.3866991997 -10.547657013 0.62660461664
          -1.1116297245 -5.8452763557 0.43841582537 4.6324753761 -19.19578743 -0.3791552186
          13.663339615 -19.772417068 0.57835435867 0 0 0
          11.315167427 -19.502075195 0.52035737038 -1.1032716036 -5.9193358421 0.22896720469
          -0.62363982201 -14.766658783 -3.240130809e-06 -2.3282928467 -10.193712234 0.21459563076
          1.0624387264 -16.988260269 -0.47677892447 4.6526012421 -19.193675995 -0.1897880584
          -0.35642877221 -1.5059952736 -0.27930212021 -1.9727072716 -12.763723373 -7.2927282417e-06
          6.6343517303 -19.194896698 0.19768990576 -0.87129980326 -4.2849321365 -0.20973038673
          1.0753858089 -16.966012955 -0.23544789851 -2.4402608871 -10.411567688 -0.035664062947
          8.9381761551 -19.286066055 0.45636448264 -1.1032283306 -5.9481987953 -5.7405095504e-06
          4.6557807922 -19.195430756 6.9483467087e-06 -0.63688737154 -2.8604869843 -0.3548387289
          1.0800527334 -16.960424423 6.9261966473e-07 14.641896248 -22.131093979 -0.59634804726
          0 0 0 -2.3629317284 -10.353756905 -9.2233567557e-06
          14.63596344 -22.183078766 -0.29739776254 0 0 0
          -0.63397532701 -14.766186714 0.26008629799 12.185824394 -21.851371765 -0.52551674843
          -1.9647755623 -7.9296388626 -0.30189052224 2.5865898132 -16.974815369 0.44059556723
          -0.22586594522 -1.421156168 0.21198622882 -1.9849305153 -12.76815033 0.30558899045
          12.181974411 -21.904066086 -0.26175889373 -0.15527230501 -1.3876087666 0.089216701686
          6.6195669174 -19.169633865 0.3976559341 14.63725853 -22.20013237 1.7949801986e-05
          -1.1032719612 -5.9193353653 -0.22897851467 9.6732978821 -21.614145279 -0.45184469223
          -0.3543843329 -2.6942918301 0.30922681093 4.6526055336 -19.19367218 0.18980197608
          0 0 0 3.0541069508 -19.266969681 -0.41599205136
          -1.3160922527 -7.7203087807 0.46999189258 -0.89448797703 -4.2526974678 -0.39699873328
          -0.28975531459 -2.6657340527 0.15989124775 9.6781654358 -21.664754868 -0.22380827367
          12.182190895 -21.92086792 1.5660132703e-05 1.0753896236 -16.96600914 0.23544926941
          -1.3231298923 -7.835205555 0.24580068886 3.0732126236 -19.246711731 -0.20617248118
          -2.4402604103 -10.411566734 0.035646084696 -0.14939831197 -1.385950923 -5.8966276129e-07
          -1.6095538139 -15.081484795 -0.59466940165 9.6810808182 -21.67947197 1.3364876395e-05
          -0.65367907286 -14.788890839 0.53071832657 -0.27066341043 -2.6623408794 -1.4544077658e-06
          -1.3234716654 -7.8749008179 -7.0583910201e-06 -1.5836033821 -15.047784805 -0.29099485278
          3.0794095993 -19.244466782 4.716442163e-06 -2.0083782673 -12.808485031 0.62438267469
          14.635967255 -22.183074951 0.29743364453 7.1644682884 -21.442432404 -0.37995892763
          -2.7794451714 -13.164075851 -0.63467556238 0 0 0
          -0.42477688193 -3.9895222187 0.39729204774 -0.20670510828 -17.073007584 -0.50444948673
          -0.372528404 -3.9825429916 0.20810694993 7.178229332 -21.480176926 -0.18740393221
          12.181978226 -21.904060364 0.26179021597 -2.7708249092 -13.139493942 -0.32540148497
          -0.18723756075 -17.051549911 -0.25221300125 -0.15527270734 -1.3876088858 -0.089217923582
          -1.1116315126 -5.8452773094 -0.4384264946 4.6324834824 -19.1957798 0.37916919589
          -1.5705343485 -15.045417786 -5.939993116e-06 -2.3282923698 -10.193709373 -0.21461090446
          1.0624461174 -16.988250732 0.47678029537 7.1822924614 -21.489173889 1.1108982108e-05
          9.6781692505 -21.664751053 0.22383502126 -2.7478175163 -13.119321823 -9.9990247691e-06
          -0.28975608945 -2.6657340527 -0.15989424288 -0.35956597328 -3.983556509 -2.4909400054e-06
          -1.3231298923 -7.8352046013 -0.24581444263 3.0732166767 -19.246707916 0.20618191361
          -0.17996333539 -17.044910431 -1.7683374836e-06 1.6131701469 -19.302682877 -0.4586571157
          -1.4995512962 -9.925617218 0.45658797026 1.6308209896 -19.278264999 -0.22707474232
          -1.5074611902 -10.076898575 0.23430730402 14.641903877 -22.131084442 0.59638398886
          0 0 0 -1.5835995674 -15.047780037 0.29098302126
          -0.44940027595 -5.4839677811 0.47320258617 4.9812116623 -21.419588089 -0.34221723676
          -0.41190868616 -5.5010151863 0.24902831018 12.185832977 -21.851364136 0.52554810047
          -0.22586730123 -1.4211571217 -0.21198779345 5.0050268173 -21.417938232 -0.17200864851
          7.1782336235 -21.480171204 0.18742616475 -2.7708210945 -13.139490128 0.32538163662
          -0.37252920866 -3.9825427532 -0.20811198652 -0.18723383546 -17.051546097 0.25220948458
          1.6373910904 -19.271612167 2.3401551061e-06 -1.5419502258 -10.120684624 -8.0993459051e-06
          9.6733064651 -21.614135742 0.45187151432 -0.35438644886 -2.6942932606 -0.30923002958
          3.0541148186 -19.266960144 0.4160014689 -0.40452116728 -5.5087313652 -3.7187203361e-06
          -1.3160933256 -7.7203097343 -0.47000467777 5.008245945 -21.419851303 8.8950355348e-06
          15.653621674 -24.601119995 -0.61769938469 0 0 0
          -1.6095466614 -15.081475258 0.59465754032 1.6308250427 -19.278259277 0.22707945108
          0 0 0 13.075662613 -24.310510635 -0.53622072935
          -2.4087100029 -15.451799393 -0.65892755985 -1.5074599981 -10.076896667 -0.23432324827
          -0.034632090479 -1.2430256605 0.12816303968 -1.2087570429 -17.310842514 -0.56054419279
          15.645503044 -24.661806107 -0.308373034 7.1644768715 -21.442424774 0.37998124957
          13.069356918 -24.371606827 -0.26775971055 0.022700875998 -1.2013177872 0.052984252572
          -2.7794384956 -13.164066315 0.63465636969 -2.3800315857 -15.411135674 -0.32484006882
          -0.42477917671 -3.9895238876 -0.39729717374 3.4806256294 -21.485349655 -0.39188668132
          -0.4119091928 -5.5010147095 -0.24903568625 -0.20669782162 -17.072998047 0.50444602966
          -0.43157473207 -7.3056879044 0.52676731348 5.0050311089 -21.417934418 0.1720264554
          -1.1825323105 -17.283653259 -0.27363362908 -0.40687525272 -7.3385968208 0.27806508541
          3.5035309792 -21.460157394 -0.19334976375 10.439761162 -24.052474976 -0.45362830162
          15.645506859 -24.681867599 2.0463159672e-05 0.062023449689 -2.3742437363 0.23929102719
          0 0 0 10.441615105 -24.114372253 -0.22498683631
          0.13283720613 -2.3283200264 0.11271914095 13.068582535 -24.391756058 1.7973496142e-05
          0.27139437199 -19.334068298 -0.47961887717 -2.3665714264 -15.403792381 -8.8351089289e-06
          -1.1721752882 -17.28068161 -4.441796591e-06 -1.585303545 -12.274605751 0.6178330183
          0.028229344636 -1.1975647211 -1.8398077728e-08 0.28610754013 -19.311605453 -0.24276398122
          3.5117959976 -21.456653595 6.5599406298e-06 -1.6694437265 -12.519272804 0.18233789504
          -0.4090012908 -7.3552803993 -4.9942404985e-06 1.6131778955 -19.30267334 0.45866188407
          10.443530083 -24.13334465 1.5493729734e-05 -1.4995503426 -9.9256162643 -0.45660302043
          0.14783914387 -2.3252511024 -2.2855270743e-07 7.7853441238 -23.824375153 -0.36187422276
          15.645506859 -24.661800385 0.30841398239 0.29255527258 -19.302936554 -1.408523076e-07
          0.19062498212 -3.5139439106 0.36976709962 -0.4494022131 -5.4839696884 -0.47320979834
          -1.6793241501 -12.535965919 -8.84453857e-06 4.9812202454 -21.419578552 0.34223508835
          0 0 0 7.7995433807 -23.881662369 -0.17843915522
          0.25808247924 -3.4815723896 0.17172189057 13.069360733 -24.371601105 0.26779565215
          -2.3800272942 -15.411130905 0.32482248545 -1.1825282574 -17.283649445 0.2736248076
          0.022700529546 -1.2013179064 -0.052984390408 3.5035352707 -21.46015358 0.19336292148
          -0.40687525272 -7.338596344 -0.27807492018 10.441618919 -24.114366531 0.22501784563
          7.8044891357 -23.89632225 1.3067422515e-05 2.116985321 -21.513946533 -0.43478289247
          -0.39426967502 -9.3526268005 0.59718281031 0.27473631501 -3.4894649982 -6.0538718571e-07
          0.13283638656 -2.328319788 -0.11271973699 -0.38810563087 -9.4119129181 0.3021941185
          0.28611162305 -19.311601639 0.24276377261 2.1348509789 -21.486066818 -0.21702076495
          -1.6694426537 -12.519269943 -0.1823553592 5.335059166 -23.673746109 -0.2847840488
          15.653630257 -24.601108551 0.61774033308 0 0 0
          0.34905683994 -4.8772883415 0.48484745622 5.3701953888 -23.6804142 -0.14520211518
          13.075671196 -24.310501099 0.53625673056 0.39324223995 -4.8538312912 0.23204241693