<?xml version="1.0"?>
<VTKFile type="UnstructuredGrid" version="0.1" byte_order="LittleEndian" header_type="UInt32" compressor="vtkZLibDataCompressor">
  <UnstructuredGrid>
    <Piece NumberOfPoints="6405" NumberOfCells="4800">
      <PointData>
        <DataArray type="Float32" Name="DISPLACEMENT" NumberOfComponents="3" ComponentName0="X-DISPLACEMENT" ComponentName1="Y-DISPLACEMENT" ComponentName2="Z-DISPLACEMENT" format="ascii" RangeMin="0" RangeMax="380.10878211">
          0 0 0 0 0 0
          2.8150441647 -1.5638533831 -1.3094757795 0 0 0
          1.6411514282 -0.84427219629 -0.8804320693 0 0 0
          2.5843434334 -1.8177424669 -0.51783585548 1.429869771 -1.0675629377 -0.3584434092
          0 0 0 5.1677899361 -3.277400732 -1.360170126
          0 0 0 5.0984082222 -3.5824539661 -0.69026225805
          3.2920958996 -2.7158370018 -0.98206293583 0 0 0
          0 0 0 2.6020679474 -1.8917562962 -1.5440247969e-09
          0.84334456921 -0.54373002052 -0.49433910847 1.4241734743 -1.1076136827 -8.1231181781e-09
          3.2166378498 -2.9749612808 -0.49906089902 0.71115386486 -0.75829190016 -0.20334838331
          5.0465955734 -3.665514946 -3.6199644171e-08 1.697697401 -2.337813139 -0.59141051769
          0 0 0 3.1731219292 -3.0525388718 -4.4479175898e-08
          1.617131114 -2.577706337 -0.30446875095 0 0 0
          7.2954864502 -5.7676930428 -1.2694478035 0 0 0
          0.7021163106 -0.79336488247 -8.7946698812e-09 0 0 0
          0 0 0 2.5843434334 -1.8177423477 0.51783585548
          4.8425421715 -5.2385091782 -0.95311748981 7.3130850792 -6.0042662621 -0.64022243023
          -0.010862624273 -0.49419361353 -0.089901559055 1.4298696518 -1.0675629377 0.3584433794
          4.8493871689 -5.4614906311 -0.48356059194 -0.10356654972 -0.71616768837 -0.050204079598
          1.5837227106 -2.6454939842 -4.5905892421e-08 5.0984077454 -3.5824539661 0.69026219845
          0 0 0 0 0 0
          0.096796497703 -2.2069535255 -0.22749036551 2.6578805447 -4.8808174133 -0.64737349749
          7.2902216911 -6.0822534561 -9.6236661307e-08 3.2166376114 -2.9749612808 0.49906080961
          2.6184818745 -5.0874471664 -0.32828238606 0.71115380526 -0.75829190016 0.20334835351
          4.8351998329 -5.5304336548 -1.0514618509e-07 0.0025877566077 -2.4368667603 -0.12396941334
          -0.1297108382 -0.75657337904 -2.396393306e-09 0 0 0
          9.2197494507 -8.7561101913 -1.1172047853 0 0 0
          6.328622818 -8.2785978317 -0.89280694723 1.6171309948 -2.577706337 0.30446866155
          9.2659740448 -8.9243736267 -0.56220436096 2.8150441647 -1.5638533831 1.3094757795
          0 0 0 0 0 0
          -0.02581300959 -2.5046069622 -3.8918049228e-08 2.6028459072 -5.1496171951 -1.065035633e-07
          -0.73975849152 -0.71914792061 0.26307851076 6.360915184 -8.4407930374 -0.44880059361
          1.641151309 -0.84427219629 0.8804320097 0.45596078038 -4.7021818161 -0.36532729864
          0 0 0 7.3130850792 -6.0042657852 0.64022225142
          -0.79395914078 -0.93619781733 0.1031646207 0.37713783979 -4.8880877495 -0.18827670813
          4.849386692 -5.4614901543 0.48356035352 -0.10356659442 -0.71616774797 0.050204064697
          3.690397501 -7.9345631599 -0.67708784342 -1.2151678801 -2.3520388603 0.056250058115
          9.2585735321 -8.9794826508 -1.8090027254e-07 5.1677899361 -3.277400732 1.3601700068
          0 0 0 0 0 0
          3.6719820499 -8.0819473267 -0.34004473686 3.2920956612 -2.7158370018 0.98206281662
          6.3630008698 -8.4928798676 -1.9036505705e-07 -1.3469011784 -2.5505754948 0.034577395767
          0.84334445 -0.54373002052 0.49433904886 -0.83030301332 -0.99379092455 1.4444512253e-08
          0.35781663656 -4.946647644 -9.9876068305e-08 2.618481636 -5.0874471664 0.32828217745
          0.0025876644067 -2.4368669987 0.12396932393 3.6667511463 -8.1291065216 -1.9216750502e-07
          1.6976971626 -2.337813139 0.59141039848 -1.371827364 -2.6198241711 -2.1369437775e-08
          1.0538216829 -7.7348656654 -0.49628257751 9.2659730911 -8.9243736267 0.56220394373
          7.2954859734 -5.7676930428 1.2694475651 0 0 0
          10.927257538 -12.080663681 -0.97912663221 0 0 0
          0 0 0 -1.3308346272 -4.7939863205 -0.19911834598
          0.99088519812 -7.8534879684 -0.24882464111 10.975440025 -12.188598633 -0.49064072967
          7.7327237129 -11.648500443 -0.83421522379 6.360915184 -8.4407930374 0.44880020618
          -1.20426929 -1.1401731968 0.51951098442 0 0 0
          4.8425416946 -5.2385091782 0.9531172514 -0.01086272113 -0.49419364333 0.089901514351
          -1.4780230522 -4.9130225182 -0.092313863337 -0.79395920038 -0.93619781733 -0.1031646058
          -1.2489881516 -1.3166334629 0.21903331578 0.37713772058 -4.8880882263 0.18827651441
          7.7688317299 -11.753926277 -0.41673156619 3.6719818115 -8.0819473267 0.34004434943
          0.97851073742 -7.8956475258 -1.8629502563e-07 10.975644112 -12.224546432 -2.8996714718e-07
          -2.0301370621 -2.7909018993 0.16719299555 -1.3469012976 -2.5505754948 -0.034577447921
          0 0 0 4.7679085732 -11.322484016 -0.69744265079
          0.096796311438 -2.2069535255 0.2274902612 2.6578803062 -4.8808174133 0.64737325907
          -1.5036965609 -4.9681873322 -8.3880422608e-08 7.7761993408 -11.787817001 -3.000627089e-07
          -1.2893850803 -1.3819106817 3.8588613194e-08 -2.2544226646 -2.9004409313 0.11384630203
          4.761259079 -11.412215233 -0.34820127487 9.2197494507 -8.7561101913 1.1172044277
          0 0 0 -1.1085131168 -7.8043642044 -0.4634385407
          6.3286223412 -8.2785978317 0.89280653 -2.2803945541 -2.9597592354 -1.562623364e-10
          -1.2391611338 -7.830953598 -0.22111336887 4.7614889145 -11.442018509 -3.0318858535e-07
          -0.73975861073 -0.71914798021 -0.26307854056 0.9908850193 -7.8534879684 0.24882425368
          1.8346637487 -11.116157532 -0.60398477316 10.975440025 -12.188598633 0.49064013362
          -2.3518207073 -5.2988653183 -0.3558614552 0.45596051216 -4.7021822929 0.36532706022
          0 0 0 -1.4780231714 -4.9130225182 0.092313684523
          1.7908158302 -11.171096802 -0.3007260859 -1.2489882708 -1.3166334629 -0.21903325617
          -2.621380806 -5.2486696243 -0.14180292189 7.7688312531 -11.753926277 0.41673097014
          3.6903970242 -7.9345631599 0.67708742619 -1.2151679993 -2.3520388603 -0.056250140071
          12.440772057 -15.598396301 -0.86744767427 0 0 0
          -1.2605252266 -7.8656549454 -1.7410445707e-07 9.0533056259 -15.204835892 -0.78298592567
          12.482790947 -15.661209106 -0.43397006392 0 0 0
          -1.3431508541 -1.6154434681 0.625846982 9.086596489 -15.265954971 -0.39006367326
          1.783254385 -11.195400238 -2.9942398783e-07 -1.3923639059 -1.7311147451 0.2628082633
          -2.2544229031 -2.9004409313 -0.11384631693 -2.6573741436 -5.2826080322 -7.0668896512e-08
          4.7612586021 -11.412215233 0.34820064902 5.8620057106 -14.892943382 -0.70479720831
          -2.2107024193 -3.4652926922 0.024547673762 12.48615551 -15.682186127 -4.2169122594e-07
          0 0 0 -2.5347914696 -3.4392771721 0.051289472729
          5.8651733398 -14.938527107 -0.35144618154 9.0950403214 -15.28530407 -4.3290066287e-07
          -1.4221435785 -1.7922359705 4.4471661909e-08 1.0538212061 -7.7348656654 0.49628219008
          -0.59487229586 -11.187150955 -0.68491727114 10.927257538 -12.080663681 0.97912603617
          0 0 0 -2.1876842976 -8.459982872 -0.88338971138
          -1.2391613722 -7.8309540749 0.22111301124 -1.3308348656 -4.7939863205 0.19911813736
          7.7327232361 -11.648500443 0.83421462774 -1.2042694092 -1.140173316 -0.51951098442
          -2.3879086971 -8.2838220596 -0.39612922072 -0.68365198374 -11.139932632 -0.32963597775
          1.7908155918 -11.171096802 0.30072546005 -2.6213810444 -5.2486696243 0.14180277288
          5.8683247566 -14.954024315 -4.3750287659e-07 -2.5275540352 -3.469250679 1.9779657023e-08
          2.7324748039 -14.682414055 -0.67229747772 -2.4818246365 -6.3279414177 -0.89103162289
          -2.0301373005 -2.7909018993 -0.16719305515 12.482790947 -15.661209106 0.43396922946
          4.7679080963 -11.322484016 0.69744205475 0 0 0
          -0.69854062796 -11.156722069 -2.9137947877e-07 -2.4122753143 -8.2945871353 -1.6911008061e-07
          2.7111740112 -14.692492485 -0.3350918293 9.0865955353 -15.265954971 0.39006280899
          -2.7710535526 -6.1019492149 -0.40760037303 -1.3923640251 -1.7311147451 -0.26280817389
          -1.1085134745 -7.8043646812 0.46343815327 2.7082493305 -14.703284264 -4.3600968525e-07
          5.8651733398 -14.938527107 0.35144528747 -2.534791708 -3.4392771721 -0.051289442927
          -2.7669169903 -6.0991430283 -4.8072816838e-08 13.799144745 -19.21068573 -0.78357201815
          0 0 0 13.833302498 -19.243125916 -0.39167132974
          1.8346632719 -11.116157532 0.60398411751 10.299006462 -18.846130371 -0.73942840099
          -2.3518211842 -5.2988653183 0.35586127639 -1.6819996834 -11.948726654 -1.2050330639
          -1.5441209078 -2.0715134144 0.66535848379 -2.3879089355 -8.2838220596 0.3961288631
          -0.68365228176 -11.139932632 0.3296353817 0 0 0
          10.327843666 -18.877412796 -0.3680164814 -1.7517125607 -11.751757622 -0.56011211872
          -1.6417279243 -2.158908844 0.2566819787 0.11396724731 -14.736095428 -0.8083396554
          -2.2630138397 -9.7205266953 -1.4259288311 12.440772057 -15.598396301 0.8674467802
          0 0 0 9.0533056259 -15.204835892 0.7829850316
          13.838181496 -19.253948212 -5.7457702951e-07 -2.3313016891 -9.5156450272 -0.69285428524
          0.078071855009 -14.657269478 -0.39324390888 -1.3431509733 -1.6154434681 -0.625846982
          6.9568181038 -18.542554855 -0.69926077127 -2.470911026 -4.3079891205 -0.30489435792
          0 0 0 2.7111737728 -14.692492485 0.33509096503
          -2.771053791 -6.1019492149 0.40760031343 10.335985184 -18.886766434 -5.8663221125e-07
          -1.7517604828 -11.753941536 -2.8902371696e-07 6.967757225 -18.560064316 -0.34858453274
          -2.8591194153 -4.1608247757 -0.14197356999 -1.6649018526 -2.2126543522 5.0789626727e-08
          5.8620052338 -14.892943382 0.70479631424 -2.2107026577 -3.4652929306 -0.024547670037
          0.072763122618 -14.664219856 -4.3102735958e-07 -2.3034598827 -9.5037307739 -1.3933144771e-07
          -0.5948728323 -11.187150955 0.68491661549 6.9728021622 -18.565929413 -5.9274276509e-07
          -2.8270368576 -4.156774044 6.7996367648e-08 -2.1876847744 -8.459982872 0.88338935375
          13.833301544 -19.243125916 0.39167016745 3.6968102455 -18.321893692 -0.69963246584
          0 0 0 -2.7418107986 -7.5888605118 -1.3319031
          3.6951818466 -18.308158875 -0.349352777 10.327843666 -18.877412796 0.36801531911
          -1.6417280436 -2.158908844 -0.2566818893 -1.7517127991 -11.751757622 0.56011152267
          -2.9054720402 -7.3567018509 -0.6821782589 2.7324743271 -14.682414055 0.67229658365
          -1.0250525475 -15.463740349 -1.2637575865 0.078071542084 -14.657269478 0.39324304461
          -2.4818251133 -6.3279414177 0.89103150368 -2.3313019276 -9.5156459808 0.69285404682
          -1.8409986496 -13.146882057 -1.4991612434 -0.98769366741 -15.317899704 -0.60133808851
          3.6962592602 -18.310237885 -5.9343528847e-07 6.9677567482 -18.560064316 0.34858334064
          -2.8591194153 -4.1608247757 0.141973719 -1.7743184566 -13.040696144 -0.75011098385
          -2.8774940968 -7.3299655914 3.3973861946e-08 15.044521332 -22.85641098 -0.72479695082
          0 0 0 -1.8202134371 -2.6595232487 0.57503652573
          -0.96060061455 -15.326498032 -4.2946965095e-07 0.93384087086 -18.32919693 -0.83951801062
          11.483170509 -22.5119133 -0.70370197296 13.799143791 -19.21068573 0.78357082605
          0 0 0 0 0 0
          -1.7309225798 -13.02834034 -2.5636222745e-07 -2.5480878353 -11.039255142 -1.5691047907
          15.070911407 -22.871318817 -0.36204224825 0.93666040897 -18.247423172 -0.41187143326
          11.506985664 -22.52614975 -0.35015726089 10.299005508 -18.846130371 0.7394272089
          -2.0286910534 -2.7004783154 0.18252010643 -1.6820001602 -11.948726654 1.2050324678
          -1.5441209078 -2.0715134144 -0.66535842419 -2.4980390072 -10.95197773 -0.81221473217
          3.6951816082 -18.308158875 0.34935158491 -2.9054722786 -7.3567018509 0.6821783185
          8.0422334671 -22.212278366 -0.68434470892 0.11396662891 -14.736095428 0.80833882093
          -2.2630143166 -9.7205266953 1.4259285927 0 0 0
          -2.8268537521 -5.5448770523 -0.92861282825 15.07645607 -22.876182556 -7.4700665209e-07
          -2.0245759487 -2.7589130402 8.7921740999e-08 0.93893635273 -18.247714996 -5.9182423229e-07
          8.0577716827 -22.215429306 -0.34108179808 6.9568171501 -18.542554855 0.69925951958
          11.514316559 -22.529764175 -7.6014930528e-07 -2.4709112644 -4.3079891205 0.30489450693
          -2.4571220875 -10.939767838 -5.5293128298e-08 -3.1615855694 -5.2759494781 -0.46920844913
          -0.98769396544 -15.317900658 0.60133725405 -1.7743186951 -13.040696144 0.75011050701
          -1.3450243473 -16.483182907 -1.3849961758 8.0638341904 -22.216085434 -7.6776586866e-07
          -3.1025650501 -5.2764549255 1.9080843572e-07 -1.2349584103 -16.44634819 -0.69942229986
          4.693359375 -21.979082108 -0.6974555254 0 0 0
          -2.9557192326 -9.1025333405 -1.6619868279 15.070910454 -22.871318817 0.36204072833
          -2.0286912918 -2.7004783154 -0.18251994252 0.93666005135 -18.247423172 0.41187024117
          4.7045807838 -21.95715332 -0.34853214025 3.6968095303 -18.321893692 0.69963121414
          11.506985664 -22.52614975 0.35015574098 -0.32819074392 -18.915275574 -1.1858582497
          -2.2065837383 -14.324500084 -1.463216424 -2.7418112755 -7.5888609886 1.3319031
          -2.9349746704 -8.9758195877 -0.84856343269 -2.4980392456 -10.95197773 0.81221461296
          -0.24864198267 -18.811704636 -0.57179772854 -2.0957970619 -14.332186699 -0.75579154491
          -1.1860789061 -16.441303253 -4.055360705e-07 -1.0250531435 -15.463740349 1.263756752
          8.0577716827 -22.215429306 0.34108024836 -1.8409992456 -13.146882057 1.4991607666
          4.7084670067 -21.954961777 -7.7044330737e-07 -3.1615860462 -5.2759494781 0.46920883656
          -2.8901975155 -8.9767866135 1.6433081385e-07 -0.21144242585 -18.816757202 -5.9368562688e-07
          -2.0520966053 -14.334905624 -1.9256766848e-07 -2.7104694843 -12.455649376 -1.5977791548
          1.8167859316 -21.93268013 -0.81942677498 15.044520378 -22.85641098 0.7247954607
          0 0 0 -1.2349586487 -16.44634819 0.6994214654
          -1.8202135563 -2.6595234871 -0.57503634691 -2.5842747688 -12.489442825 -0.81223207712
          0.9338401556 -18.32919693 0.83951681852 11.483169556 -22.5119133 0.70370042324
          1.8398140669 -21.860794067 -0.40386632085 16.214483261 -26.50544548 -0.68713444471
          0 0 0 -2.5480883121 -11.039256096 1.5691045523
          16.233768463 -26.512794495 -0.34302076697 -1.8575937748 -3.705725193 -0.060637462884
          12.619386673 -26.173868179 -0.67583799362 4.704580307 -21.95715332 0.34853059053
          0 0 0 -2.9349751472 -8.9758195877 0.84856379032
          12.638036728 -26.180900574 -0.3363430202 -2.1885049343 -3.5694026947 -0.095997802913
          -0.2486423105 -18.811704636 0.57179653645 -2.0957975388 -14.332186699 0.75579112768
          8.0422325134 -22.212278366 0.68434309959 -2.5436432362 -12.508701324 3.9394862483e-08
          1.8465684652 -21.857795715 -7.7178975744e-07 -2.826854229 -5.5448775291 0.92861324549
          -0.80925393105 -19.748069763 -1.2394683361 -2.4535064697 -7.3063774109 -1.5871348381
          9.1110610962 -25.876247406 -0.66475784779 -1.8083059788 -17.471971512 -1.2997125387
          16.239358902 -26.515024185 -9.3812076329e-07 0 0 0
          -0.69684910774 -19.739984512 -0.62540960312 12.644281387 -26.182107925 -9.5205024309e-07
          -2.1254620552 -3.6429207325 2.3992714659e-07 9.1281166077 -25.874750137 -0.3312779963
          -2.4459116459 -7.2059998512 -0.76443374157 -1.6939125061 -17.51609993 -0.66742068529
          -1.3450249434 -16.483182907 1.3849953413 -0.65069717169 -19.737138748 -5.8204716424e-07
          -2.3922693729 -15.542410851 -1.3993576765 -2.5842752457 -12.489442825 0.81223213673
          0.40214568377 -22.35757637 -1.078224659 9.1343793869 -25.873559952 -9.6070664313e-07
          4.6933588982 -21.979082108 0.69745397568 1.83981359 -21.860794067 0.40386477113
          -1.6548606157 -17.525838852 -3.6454170527e-07 -2.3775238991 -7.2062187195 3.9564076815e-07
          -2.9557199478 -9.1025342941 1.6619870663 16.233768463 -26.512794495 0.34301888943
          5.6963438988 -25.632427216 -0.67868340015 -2.2629487514 -15.637359619 -0.70665156841
          -2.2869398594 -10.822476387 -1.6286587715 0.48786792159 -22.282230377 -0.52335554361
          -0.32819142938 -18.915275574 1.1858570576 -2.2065844536 -14.324501038 1.4632160664
          0 0 0 -2.0981383324 -11.016982079 -0.80054610968
          12.638035774 -26.180900574 0.33634111285 -2.1885054111 -3.5694026947 0.095998264849
          5.7139821053 -25.611461639 -0.33921638131 -2.2305748463 -15.665259361 -1.3266317467e-07
          0.52469712496 -22.282951355 -7.787689924e-07 -0.69684940577 -19.739984512 0.62540847063
          5.7192673683 -25.608240128 -9.6525639037e-07 -2.0528700352 -11.028162956 2.9925294598e-07
          9.128115654 -25.874750137 0.33127608895 -2.4459118843 -7.2060003281 0.76443451643
          -1.6939128637 -17.51609993 0.66741997004 -2.7104701996 -12.455649376 1.5977791548
          1.8167852163 -21.93268013 0.81942516565 2.7285854816 -25.539709091 -0.77780085802
          16.214481354 -26.50544548 0.68713253736 0 0 0
          -2.0255384445 -13.93375206 -1.3625891209 -1.8575940132 -3.7057254314 0.06063786149
          12.619385719 -26.173868179 0.67583608627 -2.2629489899 -15.637359619 0.70665132999
          0.48786756396 -22.282230377 0.52335399389 2.7597351074 -25.481716156 -0.38428354263
          -1.3663170338 -20.554674149 -1.149823904 -1.8531271219 -14.218971252 -0.66766566038
          -2.0981388092 -11.016982079 0.80054670572 5.7139816284 -25.611461639 0.33921444416
          -1.2642947435 -20.609477997 -0.58808720112 -0.23746320605 -23.000366211 -1.1021897793
          -2.033216238 -18.470745087 -1.2132080793 17.339216232 -30.149604797 -0.66620820761
          0 0 0 13.719739914 -29.825706482 -0.65537142754
          -0.8092545867 -19.748069763 1.239467144 -2.453507185 -7.3063778877 1.5871355534
          9.1110601425 -25.876247406 0.66475588083 -1.9229419231 -18.585481644 -0.61058247089
          -0.13605459034 -23.0041008 -0.55551296473 -1.808306694 -17.471971512 1.2997117043
          17.352361679 -30.156528473 -0.33244755864 0 0 0
          -1.8232754469 -14.248196602 1.2327468824e-07 2.7683107853 -25.478300095 -9.6913163361e-07
          0.014274269342 -4.7270593643 -0.00031968081021 13.733537674 -29.832450867 -0.32629162073
          0.01253045816 -4.7877416611 -0.0043831020594 -1.2325354815 -20.620981216 -5.5894622619e-07
          10.158713341 -29.529718399 -0.64413774014 -1.9003126621 -18.614940643 -3.2967543007e-07
          -0.097229614854 -23.001556396 -7.7704208934e-07 17.35757637 -30.158529282 -1.1462648217e-06
          0 0 0 0.0079098343849 -8.4427042007 -0.011368027888
          10.175308228 -29.52986145 -0.32102358341 13.738594055 -29.833621979 -1.1605147847e-06
          -2.3922703266 -15.542410851 1.3993573189 0.40214493871 -22.35757637 1.0782231092
          0.011908083223 -4.7984380722 4.7483834464e-07 0.0071593108587 -8.9602375031 -0.0065778312273
          5.6963429451 -25.632427216 0.67868149281 -2.2869408131 -10.822476387 1.6286592484
          -1.7537548542 -16.740823746 -1.1160126925 1.168551445 -25.81917572 -0.97178143263
          -1.853127718 -14.218971252 0.6676658988 2.759734869 -25.481716156 0.38428157568
          -1.6217242479 -17.039161682 -0.54617482424 1.2493243217 -25.765003204 -0.47382950783
          -1.2642951012 -20.609477997 0.58808606863 10.181209564 -29.529111862 -1.1699554534e-06
          0.0077062230557 -8.8830022812 5.3952516055e-07 6.6878886223 -29.278850555 -0.65235537291
          -1.9229424 -18.585481644 0.61058181524 -0.13605491817 -23.0041008 0.555511415
          17.352359772 -30.156528473 0.33244526386 0 0 0
          0.010791662149 -11.817997932 -0.017723569646 6.7078313828 -29.263771057 -0.32605731487
          13.733537674 -29.832450867 0.32628929615 0.012636446394 -12.461845398 -0.0084888776764
          -1.6054990292 -17.076084137 -8.1095933524e-08 1.2819623947 -25.763914108 -9.8016494121e-07
          0.012530104257 -4.7877416611 0.0043839644641 10.175308228 -29.52986145 0.32102125883
          6.7134079933 -29.261585236 -1.1757823586e-06 0.013404404745 -12.450516701 3.9134545204e-07
          2.728584528 -25.539709091 0.77779889107 -0.8845512867 -23.629232407 -1.0190255642
          0.0071587977 -8.9602375031 0.0065788808279 -2.0255393982 -13.93375206 1.3625893593
          -1.6255866289 -21.344470978 -1.0530108213 -0.79656267166 -23.688102722 -0.52040922642
          -1.366317749 -20.554674149 1.1498227119 -1.5345366001 -21.468681335 -0.53030908108
          -1.621724844 -17.039161682 0.54617464542 1.2493239641 -25.765003204 0.47382754087
          -0.23746390641 -23.000366211 1.1021881104 -2.0332171917 -18.470745087 1.2132073641
          0.013186537661 -14.733420372 -0.019843028858 3.6454808712 -29.150583267 -0.72909742594
          17.339216232 -30.14960289 0.66620588303 0 0 0
          13.71973896 -29.825706482 0.65536910295 0.014990444295 -15.332747459 -0.0095270117745
          -0.77255874872 -23.700582504 -7.6905541846e-07 -1.4580559731 -19.394346237 -0.91338443756
          0.37320154905 -26.279529572 -0.97723299265 3.6789097786 -29.107254028 -0.36062732339
          0.01427386608 -4.7270593643 0.00032023576205 -1.5200601816 -21.499227524 -5.4248158676e-07
          6.7078309059 -29.263771057 0.32605496049 0.012635892257 -12.461845398 0.0084896506742
          0.46234893799 -26.291006088 -0.492944628 -1.3604149818 -19.686273575 -0.44918510318
          10.158712387 -29.529718399 0.64413535595 0.015618315898 -15.355763435 1.8743466512e-07
          3.6875872612 -29.105131149 -1.1816355254e-06 0.0079089552164 -8.4427042007 0.011368933134
          0.49319532514 -26.289579391 -9.8634893675e-07 18.441673279 -33.79466629 -0.65799677372
          0 0 0 -1.3537677526 -19.728277206 -3.0022343367e-07
          18.449794769 -33.806026459 -0.3283033669 0 0 0
          -0.79656308889 -23.688102722 0.5204076767 14.794427872 -33.474597931 -0.64127987623
          -1.7537558079 -16.740823746 1.116012454 1.1685506105 -25.81917572 0.97177946568
          1.8768758774 -3.6836528778 0.0091042630374 -1.534537077 -21.468681335 0.53030800819
          14.804076195 -33.485740662 -0.31945389509 2.2025363445 -3.5532448292 0.07189655304
          6.6878876686 -29.278850555 0.65235298872 18.454437256 -33.809448242 -1.3709350242e-06
          0.014989873394 -15.332747459 0.0095273843035 11.183011055 -33.18037796 -0.6242698431
          2.5057914257 -7.2992033958 1.5764883757 3.6789093018 -29.107254028 0.36062496901
          0 0 0 1.9629019499 -29.308330536 -0.87103319168
          0.014980798587 -17.342889786 -0.020474910736 0.010790640488 -11.817997932 0.017724279314
          2.5074808598 -7.1898980141 0.75557750463 11.19838047 -33.186214447 -0.31119132042
          14.80799675 -33.488471985 -1.3850861933e-06 0.46234861016 -26.291006088 0.49294263124
          0.01611527428 -17.869745255 -0.0099961366504 2.0370781422 -29.272542953 -0.42642459273
          -1.3604155779 -19.686273575 0.44918450713 2.1405391693 -3.6293501854 3.0591652944e-07
          -1.1742990017 -24.230230331 -0.91137689352 11.203655243 -33.187408447 -1.3948991864e-06
          -0.88455206156 -23.629232407 1.0190240145 2.4372632504 -7.1913108826 4.2048912974e-07
          0.016409572214 -17.908533096 -3.7068790704e-08 -1.0968910456 -24.361125946 -0.46026289463
          2.0649931431 -29.271692276 -1.19408503e-06 -1.6255874634 -21.344470978 1.0530097485
          18.449794769 -33.806026459 0.32830062509 7.6571230888 -32.925861359 -0.62289816141
          -1.1346657276 -22.020612717 -0.74619424343 0 0 0
          2.3499934673 -10.837110519 1.6333551407 -0.36280566454 -26.737699509 -0.89920347929
          2.1580972672 -11.034357071 0.80195784569 7.6775050163 -32.919540405 -0.3113091886
          14.804075241 -33.485740662 0.31945112348 -1.0608526468 -22.299827576 -0.37057822943
          -0.28545641899 -26.800600052 -0.45920008421 2.2025361061 -3.5532448292 -0.071896016598
          0.013185464777 -14.733420372 0.01984336786 3.6454799175 -29.150583267 0.72909504175
          -1.0874054432 -24.394182205 -7.6717697084e-07 -1.4580570459 -19.394346237 0.91338384151
          0.37320077419 -26.279529572 0.97723096609 7.6827645302 -32.919692993 -1.4013736518e-06
          11.19838047 -33.186214447 0.311188519 -1.0586783886 -22.347457886 -5.289811611e-07
          2.5074803829 -7.1898980141 -0.75557667017 2.112534523 -11.04361248 3.277729661e-07
          0.016114694998 -17.869745255 0.0099960612133 2.0370779037 -29.272542953 0.42642220855
          -0.26776787639 -26.815065384 -9.9097280781e-07 1.0173068047 -29.604631424 -0.86014902592
          0.017414866015 -19.822177887 -0.020607601851 1.0965656042 -29.62396431 -0.43491217494
          0.017760418355 -20.280769348 -0.010245664045 18.441673279 -33.79466629 0.6579939723
          0 0 0 -1.0968915224 -24.361125946 0.46026134491
          2.0903310776 -13.959640503 1.3595861197 4.5517449379 -32.771003723 -0.67787581682
          1.9140715599 -14.254031181 0.66603213549 14.794426918 -33.474597931 0.64127707481
          1.876875639 -3.6836526394 -0.0091038988903 4.5854477882 -32.742622375 -0.335475564
          7.6775045395 -32.919540405 0.31130638719 -1.0608532429 -22.299827576 0.37057718635
          2.1580967903 -11.034357071 -0.80195719004 -0.28545680642 -26.800600052 0.45919808745
          1.1209037304 -29.625070572 -1.2071537867e-06 0.017714478076 -20.329849243 -2.7353300425e-07
          11.183010101 -33.18037796 0.62426704168 2.5057907104 -7.2992033958 -1.5764876604
          1.9629011154 -29.308330536 0.8710308075 1.8840838671 -14.281882286 1.5220435046e-07
          0.014979699627 -17.342889786 0.020474815741 4.5935359001 -32.742839813 -1.4075219497e-06
          19.539129257 -37.454940796 -0.6592091918 0 0 0
          -1.1742999554 -24.230230331 0.91137528419 1.0965652466 -29.62396431 0.43490976095
          0 0 0 15.85183239 -37.135757446 -0.63219892979
          -0.79676353931 -24.703269958 -0.60761237144 0.017759833485 -20.280769348 0.010245115496
          1.8445777893 -2.6496808529 -0.61628603935 -0.69445919991 -27.167163849 -0.7806327939
          19.543310165 -37.47403717 -0.32887032628 7.6571221352 -32.925861359 0.62289535999
          15.858177185 -37.154491425 -0.31509679556 2.0404195786 -2.6984148026 -0.20227129757
          -1.1346668005 -22.020612717 0.74619317055 -0.73776423931 -24.964189529 -0.30515101552
          2.3499925137 -10.837110519 -1.6333545446 2.7699487209 -32.827552795 -0.77464789152
          1.9140710831 -14.254031181 -0.66603183746 -0.3628064394 -26.737699509 0.89920145273
          1.8187593222 -16.771224976 1.1046515703 4.5854473114 -32.742622375 0.33547276258
          -0.62580835819 -27.300825119 -0.39556664228 1.6833850145 -17.080686569 0.54044759274
          2.8381257057 -32.808795929 -0.38083603978 12.183279037 -36.843456268 -0.6053866148
          19.547330856 -37.47996521 -1.6105944951e-06 2.8919687271 -5.5169768333 0.87882697582
          0 0 0 12.19737339 -36.857723236 -0.301831007
          3.2415516376 -5.2491660118 0.44217225909 15.861087799 -37.159832001 -1.6246210635e-06
          0.19323340058 -29.906147003 -0.78377979994 -0.73593884706 -25.016849518 -7.6726638554e-07
          -0.61839568615 -27.336418152 -1.0016839269e-06 0.021180856973 -22.308721542 -0.020799420774
          2.0389897823 -2.7588741779 1.9189349132e-07 0.26324862242 -29.973062515 -0.40048912168
          2.8620824814 -32.809547424 -1.4197057681e-06 0.020860625431 -22.70634079 -0.010501009412
          1.6669846773 -17.117189407 -6.0102856025e-08 1.0173059702 -29.604631424 0.86014658213
          12.20192337 -36.861816406 -1.6343204834e-06 0.017413750291 -19.822177887 0.020607035607
          3.1812331676 -5.2519927025 2.6589424351e-07 8.5970697403 -36.588096619 -0.59157836437
          19.543310165 -37.47403717 0.32886707783 0.27697977424 -29.990285873 -1.2227336583e-06
          3.0556263924 -9.0963697433 1.6641715765 2.0903301239 -13.959640503 -1.3595858812
          0.020560318604 -22.763395309 -5.1843227311e-07 4.5517439842 -32.771003723 0.6778730154
          0 0 0 8.6172380447 -36.592449188 -0.29558372498
          3.0422384739 -8.9597434998 0.84835487604 15.858176231 -37.154491425 0.3150935173
          -0.73776477575 -24.964189529 0.3051494658 -0.62580877542 -27.300825119 0.39556464553
          2.0404193401 -2.6984145641 0.2022716105 2.8381252289 -32.808795929 0.38083320856
          1.6833844185 -17.080686569 -0.54044777155 12.197372437 -36.857723236 0.30182772875
          8.6218967438 -36.595767975 -1.6406434042e-06 1.6814728975 -32.982349396 -0.74903184175
          1.523671627 -19.425703049 0.89483398199 2.9967353344 -8.9607534409 2.0872609241e-07
          3.2415513992 -5.2491660118 -0.44217178226 1.4229888916 -19.728761673 0.43980661035
          0.26324823499 -29.973062515 0.40048664808 1.752477169 -33.009281158 -0.37963822484
          0.020860034972 -22.70634079 0.010499970056 5.4359068871 -36.413326263 -0.62485653162
          19.53912735 -37.454940796 0.65920597315 0 0 0
          2.8203032017 -12.471258163 1.611595273 5.4692997932 -36.400039673 -0.30929017067
          15.851831436 -37.135757446 0.63219565153 2.6924660206 -12.501898766 0.81894171238