<?xml version="1.0"?>
<VTKFile type="UnstructuredGrid" version="0.1" byte_order="LittleEndian" header_type="UInt32" compressor="vtkZLibDataCompressor">
  <UnstructuredGrid>
    <Piece NumberOfPoints="6405" NumberOfCells="4800">
      <PointData>
        <DataArray type="Float32" Name="DISPLACEMENT" NumberOfComponents="3" ComponentName0="X-DISPLACEMENT" ComponentName1="Y-DISPLACEMENT" ComponentName2="Z-DISPLACEMENT" format="ascii" RangeMin="0" RangeMax="275.1590899">
          0 0 0 0 0 0
          2.3639395237 -1.5088009834 -1.0776481628 0 0 0
          1.450270772 -0.92792111635 -0.79991221428 0 0 0
          2.1710116863 -1.6715013981 -0.42461690307 1.2644046545 -1.0594972372 -0.32629865408
          0 0 0 4.2030172348 -2.8764750957 -1.0777583122
          0 0 0 4.1556677818 -3.0588731766 -0.55544471741
          2.8977878094 -2.4318253994 -0.87847661972 0 0 0
          0 0 0 2.1804237366 -1.7219375372 5.9678575326e-07
          0.98778474331 -0.66279524565 -0.58310925961 1.2604855299 -1.0825130939 2.7541747727e-07
          2.8440568447 -2.5764846802 -0.44790539145 0.84768342972 -0.77998501062 -0.23977988958
          4.1110787392 -3.1091706753 1.4954409835e-06 1.9717605114 -2.097755909 -0.66941994429
          0 0 0 2.8077938557 -2.6226673126 8.8336338422e-07
          1.9125007391 -2.2258205414 -0.34274876118 0 0 0
          5.8195791245 -4.6161971092 -0.98375982046 0 0 0
          0.84295427799 -0.79764914513 -1.4484791677e-07 0 0 0
          0 0 0 2.1710119247 -1.6715009212 0.42461809516
          4.2306289673 -4.1975989342 -0.82374966145 5.8488297462 -4.7431173325 -0.50170731544
          0.48874893785 -0.51465988159 -0.36354035139 1.2644050121 -1.0594966412 0.32629927993
          4.2553229332 -4.3167357445 -0.41965666413 0.37656846642 -0.6312828064 -0.16344074905
          1.8823804855 -2.2629418373 1.6145375525e-07 4.1556682587 -3.0588719845 0.55544775724
          0 0 0 0 0 0
          1.0934354067 -1.9151844978 -0.478767097 2.9742684364 -3.8813033104 -0.66459739208
          5.8358044624 -4.7886538506 2.6868233363e-06 2.8440577984 -2.5764832497 0.4479072392
          2.9708786011 -3.991964817 -0.33836576343 0.84768408537 -0.77998429537 0.23977971077
          4.2479972839 -4.3555898666 1.7776313825e-06 1.0371495485 -2.0337612629 -0.24404847622
          0.36522847414 -0.64674931765 -6.921764566e-07 0 0 0
          7.2733917236 -6.5572071075 -0.85359370708 0 0 0
          5.4755563736 -6.1816949844 -0.74391883612 1.9125019312 -2.2258188725 0.34274914861
          7.3251037598 -6.6429290771 -0.43249335885 2.363940239 -1.5088000298 1.0776495934
          0 0 0 0 0 0
          1.0165688992 -2.0685930252 -7.2128273132e-07 2.9611814022 -4.0252718925 7.7846567592e-07
          -0.014010173269 -0.53912860155 -0.16586513817 5.5209712982 -6.2670006752 -0.37503439188
          1.4502719641 -0.92791986465 0.79991310835 1.7900437117 -3.6678495407 -0.50793099403
          0 0 0 5.8488306999 -4.7431159019 0.50171279907
          -0.087825074792 -0.66066235304 -0.088833384216 1.7670798302 -3.770516634 -0.25907894969
          4.2553243637 -4.3167338371 0.41966027021 0.37656956911 -0.63128197193 0.16343952715
          3.9647140503 -5.88489151 -0.6323979497 0.15941934288 -1.8550822735 -0.28045296669
          7.3276748657 -6.6730947495 4.1067219172e-06 4.2030191422 -2.87647295 1.0777615309
          0 0 0 0 0 0
          3.9824781418 -5.9670815468 -0.31890273094 2.8977901936 -2.4318227768 0.87847870588
          5.5289840698 -6.296248436 2.9262764656e-06 0.10640469939 -1.9746035337 -0.14890298247
          0.98778581619 -0.66279375553 0.58310937881 -0.10141252726 -0.68744003773 -1.5033011778e-06
          1.7574703693 -3.799785614 -3.719154904e-07 2.97088027 -3.9919626713 0.33836737275
          1.0371512175 -2.033759594 0.24404709041 3.9852149487 -5.9940524101 1.6627558352e-06
          1.9717627764 -2.0977528095 0.66942054033 0.093571662903 -2.0091416836 -1.8269674911e-06
          2.5476353168 -5.6756491661 -0.52701401711 7.3251056671 -6.642926693 0.4325016737
          5.8195819855 -4.6161932945 0.9837654829 0 0 0
          8.5641088486 -8.634185791 -0.74523979425 0 0 0
          0 0 0 0.51240068674 -3.5462162495 -0.36200800538
          2.540946722 -5.7500762939 -0.26583454013 8.6133003235 -8.6893167496 -0.37490418553
          6.6205768585 -8.2969236374 -0.67389523983 5.5209732056 -6.266998291 0.37504029274
          -0.67741388083 -0.69242119789 0.0020694832783 0 0 0
          4.2306323051 -4.1975951195 0.82375347614 0.48875036836 -0.51465797424 0.36353957653
          0.47039416432 -3.6398625374 -0.18810503185 -0.08782364428 -0.66066122055 0.088830567896
          -0.7759129405 -0.80438959599 -0.019109468907 1.7670817375 -3.7705142498 0.25907823443
          6.6646027565 -8.3549528122 -0.33723905683 3.9824802876 -5.9670786858 0.3189060986
          2.5399260521 -5.775241375 2.6603464676e-07 8.6217222214 -8.7094449997 5.7345569076e-06
          -0.73992413282 -1.9759865999 -0.20739305019 0.10640661418 -1.9746017456 0.14889934659
          0 0 0 4.9185476303 -8.0267343521 -0.60074102879
          1.0934380293 -1.9151809216 0.4787658453 2.9742717743 -3.8812990189 0.66459918022
          0.46127960086 -3.6679537296 -1.700520329e-06 6.6763296127 -8.3753938675 4.3184354581e-06
          -0.79349118471 -0.83962142467 -2.8557192309e-06 -0.80867123604 -2.0565047264 -0.094180449843
          4.9421200752 -8.0835227966 -0.30055162311 7.2733955383 -6.557202816 0.85360223055
          0 0 0 1.060827136 -5.5276021957 -0.44512730837
          5.4755606651 -6.1816897392 0.7439249754 -0.81201547384 -2.0981609821 -3.5085527088e-06
          1.0368608236 -5.5902924538 -0.22184711695 4.9492983818 -8.1034088135 2.8295964967e-06
          -0.014008602127 -0.53912603855 0.16586270928 2.5409491062 -5.7500734329 0.26583513618
          3.3350737095 -7.8329558372 -0.53339254856 8.6133022308 -8.6893138885 0.37491571903
          -0.54296392202 -3.5982534885 -0.32044026256 1.7900470495 -3.6678447723 0.50793039799
          0 0 0 0.4703963697 -3.6398601532 0.18810167909
          3.3407320976 -7.8838324547 -0.26693537831 -0.77591097355 -0.80438822508 0.019103959203
          -0.58340489864 -3.6560032368 -0.15218487382 6.6646051407 -8.3549499512 0.3372477591
          3.9647183418 -5.8848862648 0.63240152597 0.1594222039 -1.8550782204 0.28044942021
          9.7132501602 -10.783639908 -0.66429156065 0 0 0
          1.0333818197 -5.6129102707 -1.2830673768e-06 7.67081213 -10.478561401 -0.61744433641
          9.7525806427 -10.820208549 -0.33333078027 0 0 0
          -1.573025465 -0.88286554813 0.052388384938 7.7070713043 -10.518758774 -0.30805072188
          3.3431138992 -7.9028296471 1.2302726873e-06 -1.708932519 -0.9383893013 0.0093023413792
          -0.80866885185 -2.0565028191 0.094173520803 -0.58476507664 -3.6879570484 -3.4860438518e-06
          4.9421224594 -8.0835189819 0.30055734515 5.8221735954 -10.230005264 -0.56702262163
          -1.679284811 -2.1588938236 -0.2151581198 9.7617111206 -10.833952904 7.5566617852e-06
          0 0 0 -1.7490849495 -2.1824467182 -0.096614174545
          5.846786499 -10.270376205 -0.28289708495 7.7179098129 -10.533315659 5.9338190113e-06
          -1.7198930979 -0.97852742672 -4.9773902902e-06 2.5476396084 -5.6756434441 0.52701479197
          1.7562412024 -7.681535244 -0.48271033168 8.5641136169 -8.634180069 0.74525153637
          0 0 0 -0.17672000825 -5.4954357147 -0.3858217895
          1.0368635654 -5.5902895927 0.22184462845 0.51240438223 -3.5462110043 0.36200478673
          6.6205821037 -8.2969179153 0.67390412092 -0.67741209269 -0.69241762161 -0.0020745985676
          -0.1917141974 -5.5448474884 -0.19087825716 1.7525304556 -7.7253770828 -0.23789696395
          3.3407347202 -7.8838291168 0.26693791151 -0.58340215683 -3.6560006142 0.15217800438
          5.8544740677 -10.284547806 4.2456849769e-06 -1.7505751848 -2.2126383781 -5.780950687e-06
          4.1086678505 -10.051590919 -0.51736855507 -1.5285272598 -3.770250082 -0.32935166359
          -0.73992079496 -1.9759819508 0.20738624036 9.7525835037 -10.820205688 0.33334597945
          4.9185523987 -8.0267286301 0.60074692965 0 0 0
          1.7527611256 -7.741256237 -5.0833824616e-07 -0.19083690643 -5.5655169487 -3.1142901662e-06
          4.12231493 -10.087905884 -0.25874942541 7.7070741653 -10.518755913 0.30806264281
          -1.5637625456 -3.7879474163 -0.15436922014 -1.7089301348 -0.93838775158 -0.0093121146783
          1.0608317852 -5.5275964737 0.44512504339 4.1259527206 -10.100680351 2.4621926968e-06
          5.8467898369 -10.270372391 0.28290560842 -1.7490822077 -2.1824445724 0.096602752805
          -1.5615026951 -3.8106093407 -5.80503729e-06 10.755572319 -12.966832161 -0.61013519764
          0 0 0 10.783658981 -12.99486351 -0.30580615997
          3.3350787163 -7.8329491615 0.53339523077 8.6410856247 -12.685649872 -0.57424271107
          -0.5429597497 -3.5982475281 0.32043352723 0.2925619483 -7.5928378105 -0.40651673079
          -1.0964825153 -1.2595260143 0.5588645339 -0.19171115756 -5.5448446274 0.19087207317
          1.7525336742 -7.725373745 0.23789598048 0 0 0
          8.6682081223 -12.717374802 -0.28605648875 0.28640282154 -7.6364860535 -0.20734450221
          -1.0987141132 -1.3639603853 0.14483293891 2.4604773521 -9.9171409607 -0.47425213456
          -1.2698472738 -5.6317882538 -0.38453236222 9.7132558823 -10.783633232 0.66430693865
          0 0 0 7.6708183289 -10.478554726 0.61745643616
          10.791834831 -13.005555153 9.5618897831e-06 -1.2893550396 -5.652944088 -0.18217974901
          2.4664514065 -9.9485111237 -0.23688086867 -1.5730233192 -0.88286072016 -0.052397828549
          6.6703209877 -12.459059715 -0.53326570988 -2.4744436741 -2.3668704033 -0.14304538071
          0 0 0 4.1223182678 -10.087902069 0.2587544024
          -1.5637594461 -3.7879445553 0.15435771644 8.6768007278 -12.728792191 7.7526692621e-06
          0.28825682402 -7.648955822 -2.4371945528e-06 6.6933693886 -12.491049767 -0.26552134752
          -2.5479812622 -2.4058072567 -0.086436197162 -1.0554959774 -1.3663711548 -4.0418899516e-06
          5.8221793175 -10.229998589 0.56703132391 -1.6792809963 -2.1588881016 0.21514675021
          2.4690523148 -9.9589214325 5.4334014976e-07 -1.2838193178 -5.6726350784 -5.4354331951e-06
          1.756246686 -7.6815285683 0.48270943761 6.7003951073 -12.501825333 5.8789964896e-06
          -2.4948616028 -2.4262473583 -7.995757187e-06 -0.17671497166 -5.495429039 0.38581568003
          10.783661842 -12.994859695 0.30582532287 4.8338775635 -12.306656837 -0.49240165949
          0 0 0 -2.4855511189 -4.0006890297 -0.36303251982
          4.8513507843 -12.333508492 -0.24569900334 8.668211937 -12.717370987 0.28607204556
          -1.0987137556 -1.3639587164 -0.14484091103 0.28640595078 -7.6364827156 0.20733961463
          -2.529353857 -3.988560915 -0.1739539206 4.1086735725 -10.051584244 0.51737362146
          0.8130466938 -9.8185911179 -0.42868664861 2.4664547443 -9.948507309 0.23688198626
          -1.5285227299 -3.7702434063 0.3293402493 -1.2893518209 -5.6529407501 0.18216893077
          -0.92612993717 -7.68791008 -0.41931930184 0.80722284317 -9.8445587158 -0.21775816381
          4.8562059402 -12.342396736 3.9179321902e-06 6.6933727264 -12.491045952 0.26553317904
          -2.5479791164 -2.4058043957 0.086420319974 -0.93937891722 -7.7029452324 -0.20058146119
          -2.5246624947 -3.9991970062 -8.5166075223e-06 11.731713295 -15.16750145 -0.58073437214
          0 0 0 -0.69349855185 -1.5261888504 0.40578052402
          0.81029564142 -9.8531398773 -1.5447470787e-06 3.1037006378 -12.212181091 -0.46232819557
          9.5506362915 -14.90056324 -0.54400616884 10.755578995 -12.966825485 0.61015450954
          0 0 0 0 0 0
          -0.93121737242 -7.7209625244 -4.8070451157e-06 -2.2459213734 -5.8848638535 -0.43965625763
          11.748838425 -15.195466042 -0.29061561823 3.1138436794 -12.2298069 -0.23169565201
          9.5685482025 -14.931700706 -0.27060723305 8.6410923004 -12.685642242 0.57425844669
          -0.64990073442 -1.5478078127 0.17377634346 0.29256752133 -7.592830658 0.4065118432
          -1.0964848995 -1.2595238686 -0.55887144804 -2.2751512527 -5.8664398193 -0.2068066597
          4.8513541222 -12.333503723 0.24570690095 -2.5293505192 -3.988558054 0.17393699288
          7.4575023651 -14.694459915 -0.50186610222 2.4604833126 -9.9171333313 0.47425332665
          -1.2698420286 -5.6317811012 0.38452157378 0 0 0
          -1.2494724989 -2.6696636677 0.32995301485 11.755502701 -15.205716133 1.1740719856e-05
          -0.66366678476 -1.5833935738 -3.2989603369e-06 3.1179828644 -12.237351418 1.8477746835e-06
          7.477563858 -14.72461319 -0.24909222126 6.6703281403 -12.459052086 0.53327763081
          9.5745706558 -14.942338943 9.7582924354e-06 -2.4744415283 -2.366863966 0.14303041995
          -2.2677261829 -5.877972126 -8.1929565567e-06 -1.2909003496 -2.7855710983 0.15537938476
          0.80722624063 -9.8445549011 0.21775512397 -0.93937546015 -7.7029414177 0.20057190955
          -0.50994241238 -9.8709411621 -0.45309320092 7.4832043648 -14.734012604 7.7142176451e-06
          -1.2870180607 -2.8036491871 -6.1177470343e-06 -0.51274830103 -9.874253273 -0.22079403698
          5.4930114746 -14.579649925 -0.46313652396 0 0 0
          -1.9176822901 -4.0028657913 0.21575011313 11.748842239 -15.195461273 0.29063913226
          -0.6499003768 -1.5478067398 -0.17378255725 3.1138472557 -12.229803085 0.2316994071
          5.5129389763 -14.601242065 -0.22998005152 4.8338837624 -12.306648254 0.49240970612
          9.5685520172 -14.931696892 0.27062681317 1.3915195465 -12.139134407 -0.46112495661
          -1.9310873747 -7.9325385094 -0.49383106828 -2.4855463505 -4.0006814003 0.3630156517
          -1.9917699099 -4.1538109779 0.054235294461 -2.2751476765 -5.8664364815 0.20679035783
          1.3930039406 -12.145231247 -0.22747778893 -1.9460537434 -7.9054198265 -0.23437301815
          -0.50342684984 -9.8864097595 -3.9235874283e-06 0.81305289268 -9.8185825348 0.42868378758
          7.4775676727 -14.724609375 0.24910770357 -0.92612403631 -7.6879024506 0.4193097949
          5.5176157951 -14.608297348 5.6020398915e-06 -1.2909001112 -2.785569191 -0.15539158881
          -1.9885476828 -4.1634025574 -8.0369200077e-06 1.3964992762 -12.150417328 -3.374418327e-07
          -1.9348376989 -7.9161243439 -7.5573466347e-06 -2.5783390999 -5.9633641243 -0.01832186617
          3.6892654896 -14.541217804 -0.44604364038 11.731720924 -15.16749382 0.58075803518
          0 0 0 -0.51274460554 -9.8742494583 0.22078627348
          -0.69350045919 -1.5261877775 -0.40578654408 -2.6590843201 -6.0958724022 -0.092333972454
          3.1037073135 -12.212173462 0.46233209968 9.5506439209 -14.900554657 0.54402589798
          3.7052881718 -14.549079895 -0.22195884585 12.682109833 -17.393054962 -0.57275086641
          0 0 0 -2.2459156513 -5.8848557472 0.43963998556
          12.689311028 -17.427268982 -0.2860648334 -0.4867516458 -1.5350340605 0.3616977334
          10.423744202 -17.128290176 -0.52623611689 5.512942791 -14.601238251 0.22999130189
          0 0 0 -1.9917696714 -4.1538085938 -0.05425132066
          10.432850838 -17.164897919 -0.2615583837 -0.418528229 -1.5335232019 0.15405412018
          1.3930079937 -12.145227432 0.22747717798 -1.9460500479 -7.9054160118 0.23435798287
          7.4575099945 -14.694451332 0.50188171864 -2.5697381496 -6.0531945229 -9.5537043308e-06
          3.709335804 -14.554388046 3.422338068e-06 -1.2494746447 -2.6696615219 -0.32996407151
          -0.035141985863 -12.155657768 -0.47107875347 -0.94154804945 -2.8456945419 0.38960459828
          8.1929159164 -16.926748276 -0.47335219383 -1.5659362078 -10.098234177 -0.52787947655
          12.69419384 -17.439027786 1.4082348571e-05 0 0 0
          -0.02636363171 -12.152766228 -0.23317833245 10.436463356 -17.176532745 1.1930048458e-05
          -0.42175388336 -1.5482110977 -2.3618745217e-06 8.2083787918 -16.960855484 -0.23460918665
          -0.93329429626 -2.8862242699 0.20883490145 -1.5637817383 -10.069158554 -0.25348988175
          -0.50993585587 -9.870932579 0.45308554173 -0.018191408366 -12.15609169 -2.6856996556e-06
          -2.8122937679 -8.2382793427 -0.54104149342 -2.6590838432 -6.095870018 0.092315137386
          2.006062746 -14.52127552 -0.45986396074 8.2125167847 -16.970165253 9.7249676401e-06
          5.4930186272 -14.579641342 0.46314796805 3.7052919865 -14.54907608 0.22196574509
          -1.5501484871 -10.076968193 -6.6097791205e-06 -0.92183363438 -2.909981966 -4.8091446843e-06
          -1.917683363 -4.0028634071 -0.21576498449 12.689314842 -17.42726326 0.2860930264
          6.0708246231 -16.832719803 -0.42494747043 -2.8341059685 -8.20154953 -0.27510416508
          -1.4207177162 -4.2565732002 0.35074618459 2.0195596218 -14.517893791 -0.22567851841
          1.3915268183 -12.139126778 0.46112453938 -1.9310811758 -7.9325299263 0.49381604791
          0 0 0 -1.4431298971 -4.3472547531 0.18671534956
          10.432854652 -17.164894104 0.26158228517 -0.41852840781 -1.5335228443 -0.15405866504
          6.0901207924 -16.854467392 -0.21149778366 -2.8167014122 -8.1946144104 -1.0388163901e-05
          2.0245699883 -14.520139694 1.1660175687e-06 -0.026359675452 -12.152762413 0.23317298293
          6.093808651 -16.860551834 7.4799913818e-06 -1.4420714378 -4.3751616478 -6.9716070357e-06
          8.2083826065 -16.960851669 0.23462869227 -0.93329483271 -2.8862235546 -0.20884433389
          -1.5637780428 -10.069154739 0.25347670913 -2.578338623 -5.9633598328 0.018305739388
          3.6892728806 -14.541209221 0.44605067372 4.1896681786 -16.839044571 -0.41047605872
          12.682118416 -17.393045425 0.57277917862 0 0 0
          -1.8240667582 -5.9417533875 0.31405502558 -0.48675400019 -1.5350341797 -0.36170232296
          10.423751831 -17.128282547 0.52626013756 -2.8341021538 -8.2015457153 0.27508345246
          2.0195639133 -14.517889023 0.2256808728 4.2091889381 -16.841445923 -0.2047534883
          -1.1709970236 -12.361427307 -0.53408712149 -1.8531714678 -6.0839996338 0.14344200492
          -1.443130374 -4.3472537994 -0.18672896922 6.0901250839 -16.854463577 0.21151280403
          -1.1567018032 -12.337771416 -0.25660577416 0.47272548079 -14.524834633 -0.4656534791
          -2.5000829697 -10.428195953 -0.60455113649 13.639175415 -19.670351028 -0.58134901524
          0 0 0 11.287004471 -19.399374008 -0.5209711194
          -0.035134736449 -12.155648232 0.47107341886 -0.94155097008 -2.8456945419 -0.38961356878
          8.1929244995 -16.926738739 0.47337183356 -2.492218256 -10.38171196 -0.29833474755
          0.48292672634 -14.515399933 -0.23319013417 -1.5659294128 -10.09822464 0.52786636353
          13.638331413 -19.714254379 -0.28996017575 0 0 0
          -1.8768208027 -6.1128411293 -8.6859463408e-06 4.2127165794 -16.84444809 5.2038690228e-06
          -0.37771815062 -1.5075097084 0.29147049785 11.288445473 -19.444734573 -0.25905537605
          -0.30086529255 -1.4851289988 0.12567774951 -1.1451053619 -12.342159271 -5.3289927564e-06
          8.9053239822 -19.184144974 -0.45484301448 -2.4804213047 -10.378357887 -9.4917922979e-06
          0.48930558562 -14.513876915 -1.2238642739e-06 13.641379356 -19.728761673 1.6568617866e-05
          0 0 0 -0.68143951893 -2.8512456417 0.36925801635
          8.9150390625 -19.226099014 -0.22544516623 11.290148735 -19.458818436 1.4238722542e-05
          -2.8122878075 -8.2382707596 0.54102104902 2.0060706139 -14.521265984 0.45986631513
          -0.29905468225 -1.4900859594 -1.5860125586e-06 -0.63487136364 -2.8466553688 0.19529470801
          6.0708327293 -16.832712173 0.42496263981 -1.4207201004 -4.2565732002 -0.35075891018
          -2.1237869263 -7.8376135826 0.31441605091 2.5403647423 -16.867973328 -0.43130660057
          -1.8531711102 -6.0839977264 -0.14345905185 4.2091932297 -16.841440201 0.20476393402
          -2.1803767681 -8.0442276001 0.086694195867 2.5573368073 -16.855722427 -0.21418729424
          -1.1566979885 -12.337766647 0.25659513474 8.9184408188 -19.237392426 1.187662383e-05
          -0.61908471584 -2.8532319069 -3.4644242533e-06 6.584010601 -19.069255829 -0.39451935887
          -2.4922144413 -10.381707191 0.29831582308 0.48293074965 -14.515396118 0.23318766057
          13.638335228 -19.714250565 0.28999331594 0 0 0
          -0.96060597897 -4.2258162498 0.41430723667 6.5989770889 -19.095849991 -0.19611851871
          11.288449287 -19.444730759 0.25908389688 -0.93714553118 -4.2578692436 0.21843883395
          -2.1915590763 -8.0583257675 -9.8550826806e-06 2.562338829 -16.855268478 2.8710451261e-06
          -0.30086567998 -1.4851288795 -0.12568083405 8.9150428772 -19.2260952 0.22546896338
          6.6015510559 -19.102106094 9.5190880529e-06 -0.93180751801 -4.273900032 -5.3674502851e-06
          4.189675808 -16.839035034 0.41048663855 -0.74953073263 -14.671978951 -0.51355367899
          -0.6348721385 -2.8466551304 -0.19530160725 -1.8240675926 -5.9417519569 -0.31407099962
          -2.1295175552 -12.684290886 -0.6034643054 -0.73247790337 -14.65146637 -0.25199866295
          -1.170989871 -12.36141777 0.53407639265 -2.1093382835 -12.645831108 -0.29428553581
          -2.1803762913 -8.0442256927 -0.086713656783 2.5573410988 -16.855718613 0.21419303119
          0.47273308039 -14.524825096 0.4656509459 -2.5000760555 -10.428186417 0.60453224182
          -1.2043415308 -5.7984089851 0.45596829057 4.5945053101 -19.095104218 -0.37467896938
          13.639183044 -19.670343399 0.58138221502 0 0 0
          11.287013054 -19.399364471 0.52099972963 -1.1968468428 -5.8737072945 0.2384019196
          -0.72272717953 -14.652290344 -3.8698508433e-06 -2.5734965801 -10.175409317 0.16311819851
          0.99417221546 -16.879232407 -0.46601870656 4.6144986153 -19.094409943 -0.18740087748
          -0.37772029638 -1.5075104237 -0.29147389531 -2.0975756645 -12.642643929 -8.2398182712e-06
          6.5989813805 -19.095844269 0.1961376071 -0.93714624643 -4.2578687668 -0.21844942868
          1.0057746172 -16.858488083 -0.23015262187 -2.6768760681 -10.37556076 -0.055912587792
          8.9053325653 -19.184137344 0.45486691594 -1.1964360476 -5.9034266472 -7.1292724897e-06
          4.6178503036 -19.096590042 7.1539370765e-06 -0.68144249916 -2.8512465954 -0.36926478148
          1.0102730989 -16.853469849 3.771826016e-07 14.622987747 -22.033445358 -0.60014849901
          0 0 0 -2.5781767368 -10.30079937 -1.072593659e-05
          14.616955757 -22.087734222 -0.2993080318 0 0 0
          -0.73247402906 -14.651461601 0.25199091434 12.158439636 -21.752811432 -0.52625918388
          -2.1237869263 -7.8376102448 -0.31443399191 2.5403728485 -16.867963791 0.43131235242
          -0.2378898263 -1.4290519953 0.21793846786 -2.1093344688 -12.64582634 0.29426908493
          12.154632568 -21.807704926 -0.26213526726 -0.16514837742 -1.3919129372 0.091713272035
          6.5840191841 -19.069246292 0.39453858137 14.618379593 -22.105545044 1.9170231099e-05
          -1.1968472004 -5.8737068176 -0.2384159416 9.6366100311 -21.51650238 -0.44979247451
          -0.37930953503 -2.6902499199 0.31875622272 4.6145033836 -19.094404221 0.18741521239
          0 0 0 3.0000133514 -19.163192749 -0.4089038372
          -1.4440779686 -7.667427063 0.48231706023 -0.96060878038 -4.2258172035 -0.41431739926
          -0.31247359514 -2.6578814983 0.16487981379 9.6419916153 -21.568994522 -0.22279162705
          12.154905319 -21.825223923 1.6642792616e-05 1.0057786703 -16.858482361 0.23015338182
          -1.4511238337 -7.7835483551 0.25275403261 3.0184481144 -19.144172668 -0.20269934833
          -2.6768755913 -10.375558853 0.05589171499 -0.15899163485 -1.3899296522 -8.9883741339e-07
          -1.7390799522 -14.953007698 -0.57825237513 9.6450242996 -21.584354401 1.4110042684e-05
          -0.74952328205 -14.671969414 0.51354587078 -0.29303592443 -2.6536865234 -2.1327928152e-06
          -1.4513590336 -7.82097435 -8.7271391749e-06 -1.7161849737 -14.919891357 -0.28261318803
          3.0246722698 -19.142240524 4.7149706006e-06 -2.1295101643 -12.684281349 0.60344791412
          14.616959572 -22.0877285 0.29934638739 7.1219358444 -21.347703934 -0.37602201104
          -2.937918663 -13.043861389 -0.63430517912 0 0 0
          -0.46232691407 -3.9656403065 0.41116860509 -0.30916118622 -16.955308914 -0.49258980155
          -0.40841847658 -3.9557008743 0.21542838216 7.13636446 -21.386751175 -0.18542559445
          12.154637337 -21.807699203 0.26216858625 -2.9281406403 -13.011811256 -0.32109695673
          -0.29190909863 -16.934497833 -0.2466096729 -0.16514883935 -1.3919130564 -0.091715089977
          -1.2043436766 -5.7984099388 -0.4559815228 4.59451437 -19.095094681 0.37469339371
          -1.7035509348 -14.918195724 -6.7985010901e-06 -2.5734961033 -10.175406456 -0.16313575208
          0.99418008327 -16.87922287 0.46601948142 7.1404829025 -21.396318436 1.1627545973e-05
          9.6419963837 -21.5689888 0.22281987965 -2.9088847637 -12.996009827 -1.1268124581e-05
          -0.31247451901 -2.6578817368 -0.16488416493 -0.3951921761 -3.9559202194 -3.5567582017e-06
          -1.4511238337 -7.7835474014 -0.25277104974 3.0184524059 -19.144166946 0.20270878077
          -0.28468844295 -16.928260803 -2.2990207071e-06 1.5364092588 -19.195898056 -0.45052978396
          -1.6413010359 -9.8569536209 0.47890749574 1.5532958508 -19.172040939 -0.22308556736
          -1.654856205 -10.013036728 0.24000878632 14.62299633 -22.033433914 0.6001868844
          0 0 0 -1.7161808014 -14.919886589 0.28259965777
          -0.50236183405 -5.4457392693 0.48923945427 4.9404482841 -21.327817917 -0.33799001575
          -0.46435904503 -5.4600362778 0.25759708881 12.158448219 -21.752801895 0.52629256248
          -0.23789161444 -1.429052949 -0.21794068813 4.9647965431 -21.327072144 -0.16972352564
          7.1363687515 -21.386745453 0.18544888496 -2.9281365871 -13.011807442 0.32107454538
          -0.40841940045 -3.9557006359 -0.21543551981 -0.29190504551 -16.934494019 0.24660509825
          1.5598334074 -19.165670395 2.1294695216e-06 -1.6947209835 -10.051987648 -9.9862345451e-06
          9.6366186142 -21.516490936 0.44982078671 -0.37931221724 -2.6902513504 -0.31876078248
          3.0000216961 -19.163183212 0.40891328454 -0.4570671916 -5.46687603 -5.1625124797e-06
          -1.4440791607 -7.6674275398 -0.48233285546 4.9683279991 -21.329376221 9.2084246717e-06
          15.641465187 -24.512683868 -0.62227767706 0 0 0
          -1.7390720844 -14.952998161 0.57823884487 1.5533001423 -19.172035217 0.22308985889
          0 0 0 13.049360275 -24.220695496 -0.5368912816
          -2.5658910275 -15.31524086 -0.64553558826 -1.6548546553 -10.013034821 -0.24002839625
          -0.030608188361 -1.2541290522 0.12560625374 -1.3450936079 -17.182365417 -0.54878109694
          15.633389473 -24.576286316 -0.31065058708 7.1219444275 -21.34769249 0.37604537606
          13.043272018 -24.284629822 -0.26810202003 0.027273962274 -1.2081336975 0.051461931318
          -2.937911272 -13.043850899 0.63428324461 -2.5400538445 -15.273443222 -0.31778994203
          -0.46232971549 -3.965641737 -0.41117575765 3.4221553802 -21.390542984 -0.38591614366
          -0.46435958147 -5.4600362778 -0.25760731101 -0.30915334821 -16.955299377 0.4925852716
          -0.50335890055 -7.2576375008 0.54526770115 4.9648013115 -21.327066422 0.16974195838
          -1.3207117319 -17.155168533 -0.26832997799 -0.47936692834 -7.2884712219 0.28749337792
          3.4452238083 -21.366100311 -0.19020788372 10.398607254 -23.962944031 -0.45053875446
          15.633575439 -24.597299576 2.1851188649e-05 0.064555369318 -2.3703219891 0.24051807821
          0 0 0 10.40132618 -24.027500153 -0.2234069556
          0.13800254464 -2.3200798035 0.11194320023 13.042618752 -24.305704117 1.9096454707e-05
          0.16553291678 -19.222162247 -0.47302106023 -2.5270018578 -15.266495705 -9.9434046206e-06
          -1.3103996515 -17.152488708 -5.1971128414e-06 -1.7669900656 -12.171216965 0.62621164322
          0.032981142402 -1.2041754723 -3.4328536458e-07 0.17962422967 -19.199235916 -0.23906366527
          3.4534862041 -21.36264801 6.6747870733e-06 -1.8714555502 -12.422302246 0.17449226975
          -0.48259192705 -7.304444313 -6.7865662459e-06 1.5364174843 -19.195888519 0.4505341351
          10.403447151 -24.047315598 1.6353676983e-05 -1.6412997246 -9.8569526672 -0.47892597318
          0.15350028872 -2.3179855347 -8.9203058451e-07 7.732694149 -23.737159729 -0.35544627905
          15.633393288 -24.576280594 0.31069430709 0.18597991765 -19.190572739 -5.6631790812e-07
          0.19345991313 -3.4809484482 0.37915229797 -0.50236409903 -5.4457406998 -0.48924928904
          -1.8726705313 -12.433348656 -1.0941930668e-05 4.9404578209 -21.32780838 0.33800852299
          0 0 0 7.7482843399 -23.79646492 -0.17520199716
          0.26249241829 -3.444258213 0.17415294051 13.043276787 -24.284626007 0.2681402266
          -2.5400493145 -15.273438454 0.31777015328 -1.3207074404 -17.155162811 0.26831966639
          0.027273582295 -1.2081339359 -0.051462687552 3.4452283382 -21.366094589 0.19022126496
          -0.47936674953 -7.2884707451 -0.28750672936 10.401330948 -24.027496338 0.22343967855
          7.7532725334 -23.811847687 1.3678347386e-05 2.0339479446 -21.417036057 -0.42760875821
          -0.49689656496 -9.2950725555 0.61821359396 0.27838161588 -3.4526650906 -1.6307927808e-06
          0.13800162077 -2.320079565 -0.11194511503 -0.49444934726 -9.3536739349 0.31382662058
          0.17962861061 -19.199230194 0.23906259239 2.0522069931 -21.389284134 -0.21340343356
          -1.8714540005 -12.422299385 -0.17451377213 5.2879629135 -23.591407776 -0.27875739336
          15.64147377 -24.512672424 0.62232142687 0 0 0
          0.35158449411 -4.8350157738 0.49516385794 5.325252533 -23.597990036 -0.1418235451
          13.049368858 -24.220685959 0.53692948818 0.39647635818 -4.8063187599 0.23560677469