<?xml version="1.0"?>
<VTKFile type="UnstructuredGrid" version="0.1" byte_order="LittleEndian" header_type="UInt32" compressor="vtkZLibDataCompressor">
  <UnstructuredGrid>
    <Piece NumberOfPoints="6405" NumberOfCells="4800">
      <PointData>
        <DataArray type="Float32" Name="DISPLACEMENT" NumberOfComponents="3" ComponentName0="X-DISPLACEMENT" ComponentName1="Y-DISPLACEMENT" ComponentName2="Z-DISPLACEMENT" format="ascii" RangeMin="0" RangeMax="403.93657719">
          0 0 0 0 0 0
          2.5959610939 -1.4088332653 -1.2193894386 0 0 0
          1.566377759 -0.74153393507 -0.84982508421 0 0 0
          2.3731915951 -1.6303863525 -0.48539084196 1.3588116169 -0.93640607595 -0.34578472376
          0 0 0 4.7841463089 -2.8585271835 -1.2921907902
          0 0 0 4.7097043991 -3.1357274055 -0.65827596188
          3.1609311104 -2.3238179684 -0.95757138729 0 0 0
          0 0 0 2.3885304928 -1.6981629133 3.7745408576e-08
          0.8829857707 -0.45299309492 -0.51894444227 1.3521471024 -0.97356307507 2.203971583e-08
          3.083575964 -2.5593965054 -0.48681855202 0.74814611673 -0.63660538197 -0.21124047041
          4.6620030403 -3.213342905 9.2876412339e-08 1.7886142731 -1.9497852325 -0.61161702871
          0 0 0 3.0409121513 -2.6322665215 6.121965157e-08
          1.7171107531 -2.1678507328 -0.31334906816 0 0 0
          6.8182873726 -4.9685792923 -1.2400914431 0 0 0
          0.73961645365 -0.66799259186 2.9198239382e-09 0 0 0
          0 0 0 2.3731915951 -1.6303862333 0.48539093137
          4.6744685173 -4.4508371353 -0.93519288301 6.826567173 -5.1995754242 -0.62685716152
          0.20731279254 -0.36805745959 -0.18153290451 1.3588116169 -0.93640601635 0.34578478336
          4.67811203 -4.6700787544 -0.4749456048 0.11801880598 -0.55060237646 -0.081284083426
          1.6840860844 -2.2305512428 2.5572386875e-08 4.7097048759 -3.1357274055 0.65827614069
          0 0 0 0 0 0
          0.47311121225 -1.8029224873 -0.28359207511 2.7589230537 -4.096036911 -0.63848048449
          6.8075814247 -5.2771058083 1.636552156e-07 3.083575964 -2.5593962669 0.48681870103
          2.7359030247 -4.3025755882 -0.32378926873 0.74814611673 -0.63660532236 0.21124047041
          4.6643648148 -4.7396621704 1.1364614494e-07 0.40212953091 -2.0100579262 -0.14836338162
          0.099666886032 -0.58191978931 -1.7722555867e-08 0 0 0
          8.7276582718 -7.5507817268 -1.1303803921 0 0 0
          6.1387085915 -7.0676617622 -0.88057303429 1.7171107531 -2.1678504944 0.31334912777
          8.7644367218 -7.7384572029 -0.56887716055 2.5959613323 -1.4088332653 1.2193895578
          0 0 0 0 0 0
          0.37569445372 -2.0707828999 -1.2314631981e-08 2.7216591835 -4.3658490181 6.0987638051e-08
          -0.39198336005 -0.50326448679 0.12416864932 6.1675963402 -7.2507896423 -0.4430963397
          1.5663778782 -0.74153387547 0.84982514381 0.88685709238 -3.9153761864 -0.35319700837
          0 0 0 6.826567173 -5.1995754242 0.62685751915
          -0.42959645391 -0.68185156584 0.048105180264 0.8403480649 -4.1067018509 -0.18026326597
          4.67811203 -4.6700787544 0.47494581342 0.11801885068 -0.55060231686 0.081284053624
          3.7587394714 -6.7214612961 -0.63556575775 -0.68621146679 -1.8910291195 0.010771771893
          8.7603931427 -7.8003864288 2.4510316621e-07 4.7841463089 -2.8585269451 1.2921910286
          0 0 0 0 0 0
          3.756020546 -6.8957648277 -0.31917780638 3.1609313488 -2.3238177299 0.9575715065
          6.1697397232 -7.3104629517 1.762231534e-07 -0.76349157095 -2.0817732811 0.007192174904
          0.88298583031 -0.45299300551 0.51894450188 -0.4528914094 -0.7223919034 -3.4348310862e-08
          0.82323634624 -4.1650977135 5.5818727418e-09 2.7359030247 -4.3025755882 0.32378938794
          0.40212962031 -2.0100579262 0.14836336672 3.7525687218 -6.951382637 1.0562652619e-07
          1.7886143923 -1.9497851133 0.61161708832 -0.78450137377 -2.1416623592 -5.1233172371e-08
          1.4258089066 -6.5265512466 -0.40523856878 8.7644367218 -7.7384572029 0.56887763739
          6.8182873726 -4.9685788155 1.2400918007 0 0 0
          10.492497444 -10.520717621 -1.0279796124 0 0 0
          0 0 0 -0.78438460827 -3.9516780376 -0.11096635461
          1.3931624889 -6.6834874153 -0.20307666063 10.532459259 -10.668980598 -0.51447325945
          7.5387125015 -10.068637848 -0.82815748453 6.1675963402 -7.2507896423 0.44309669733
          -0.92735797167 -0.80175298452 0.40182974935 0 0 0
          4.6744685173 -4.4508371353 0.93519318104 0.20731286705 -0.36805737019 0.1815328896
          -0.86381161213 -4.1099705696 -0.053735800087 -0.4295964241 -0.68185150623 -0.048105243593
          -0.93903928995 -0.96675395966 0.16491708159 0.84034818411 -4.1067018509 0.18026328087
          7.5707249641 -10.215733528 -0.4140676856 3.7560207844 -6.8957643509 0.31917801499
          1.3829888105 -6.73396492 3.2162201791e-08 10.534609795 -10.718062401 3.3473540384e-07
          -1.6604305506 -2.2070045471 0.23296914995 -0.76349151134 -2.0817732811 -0.0071922759525
          0 0 0 4.7729473114 -9.7330360413 -0.63164192438
          0.47311133146 -1.802922368 0.28359207511 2.7589232922 -4.096036911 0.63848060369
          -0.88553243876 -4.1630983353 -5.373763301e-08 7.5776362419 -10.26350975 2.4744304028e-07
          -0.9729629159 -1.013092041 -5.1674337698e-08 -1.771322608 -2.3578782082 0.13051247597
          4.7753133774 -9.8721466064 -0.31483587623 8.7276592255 -7.55078125 1.1303808689
          0 0 0 -0.69527620077 -6.5274701118 -0.22455395758
          6.1387085915 -7.0676612854 0.88057339191 -1.7940260172 -2.4128155708 -9.753242125e-08
          -0.76717799902 -6.64138937 -0.10934092104 4.7762961388 -9.9168663025 1.5877884607e-07
          -0.39198330045 -0.50326436758 -0.12416869402 1.3931626081 -6.6834874153 0.20307672024
          2.056024313 -9.5281772614 -0.45095735788 10.532459259 -10.668980598 0.5144739151
          -2.1476552486 -4.2479562759 0.018736859784 0.88685727119 -3.915375948 0.35319700837
          0 0 0 -0.86381149292 -4.1099705696 0.053735688329
          2.0300660133 -9.6480617523 -0.22427050769 -0.93903923035 -0.96675390005 -0.1649171859
          -2.2856562138 -4.3321027756 0.02183432132 7.570725441 -10.215732574 0.41406819224
          3.7587397099 -6.7214612961 0.63556599617 -0.68621140718 -1.8910290003 -0.010771867819
          12.116538048 -13.7940979 -0.94042402506 0 0 0
          -0.78612416983 -6.683701992 -4.6436742451e-08 8.8706798553 -13.37212944 -0.7837125659
          12.152193069 -13.909899712 -0.4696033597 0 0 0
          -1.3489238024 -1.2238696814 0.61061322689 8.8992471695 -13.487192154 -0.39073824883
          2.0238313675 -9.6875123978 6.70894309e-08 -1.359202981 -1.3612496853 0.25494387746
          -1.771322608 -2.3578782082 -0.13051266968 -2.3183243275 -4.3737916946 -1.2531508276e-07
          4.7753133774 -9.8721456528 0.31483620405 5.7901263237 -13.047559738 -0.6292694211
          -2.3406941891 -2.7281041145 0.32306650281 12.155694008 -13.94798851 4.312261126e-07
          0 0 0 -2.5209767818 -2.8064925671 0.19013315439
          5.7932004929 -13.154377937 -0.31279227138 8.9065542221 -13.524294853 3.2648560477e-07
          -1.4007892609 -1.4122582674 -8.3163563147e-08 1.425809145 -6.5265507698 0.40523862839
          -0.44185864925 -9.5078401566 -0.3302846849 10.492498398 -10.520717621 1.0279803276
          0 0 0 -2.3911094666 -6.8197512627 -0.19893831015
          -0.76717793941 -6.64138937 0.10934082419 -0.78438448906 -3.9516777992 0.11096624285
          7.5387125015 -10.068636894 0.82815796137 -0.92735797167 -0.80175286531 -0.40182986856
          -2.5261771679 -6.8311185837 -0.085917964578 -0.50486755371 -9.576540947 -0.1612406671
          2.0300660133 -9.6480617523 0.2242706418 -2.2856562138 -4.3321027756 -0.021834570915
          5.795273304 -13.188360214 2.201864362e-07 -2.5462777615 -2.8500256538 -1.5675665566e-07
          2.7587099075 -12.836920738 -0.49274107814 -2.9862821102 -4.8459200859 -0.069116264582
          -1.6604305506 -2.2070043087 -0.23296934366 12.152193069 -13.909899712 0.46960422397
          4.7729473114 -9.7330360413 0.63164228201 0 0 0
          -0.51985013485 -9.607211113 -3.0070363977e-08 -2.5584766865 -6.8579649925 -1.3850745972e-07
          2.7373597622 -12.922358513 -0.24452711642 8.8992471695 -13.487192154 0.39073890448
          -3.219846487 -4.8003740311 -0.010697643273 -1.359202981 -1.3612495661 -0.25494402647
          -0.69527602196 -6.527469635 0.22455385327 2.7333452702 -12.950982094 1.1062822125e-07
          5.7932004929 -13.154377937 0.31279271841 -2.5209767818 -2.8064925671 -0.19013345242
          -3.2621047497 -4.8213801384 -2.105813337e-07 13.613658905 -17.303028107 -0.86735880375
          0 0 0 13.643767357 -17.392002106 -0.4328186512
          2.0560245514 -9.5281772614 0.4509575069 10.138442993 -16.907779694 -0.74654358625
          -2.1476552486 -4.2479557991 -0.01873710379 -2.4069292545 -9.8064727783 -0.40522503853
          -1.7204035521 -1.7542607784 0.74162906408 -2.5261771679 -6.8311181068 0.085917688906
          -0.5048674345 -9.576540947 0.1612406075 0 0 0
          10.162660599 -16.995931625 -0.37182882428 -2.5261743069 -9.7511043549 -0.18848636746
          -1.7703412771 -1.859326601 0.30725103617 -0.047607731074 -12.801229477 -0.42611715198
          -3.3017654419 -7.5239691734 -0.48162642121 12.116538048 -13.7940979 0.94042491913
          0 0 0 8.8706798553 -13.37212944 0.78371322155
          13.647179604 -17.421123505 5.3398230193e-07 -3.5205745697 -7.3648076057 -0.21797423065
          -0.1002304107 -12.829236984 -0.20883662999 -1.3489239216 -1.2238695621 -0.6106134057
          6.8048677444 -16.593864441 -0.62753891945 -2.8613290787 -3.397582531 0.24493457377
          0 0 0 2.7373597622 -12.922357559 0.24452733994
          -3.219846487 -4.8003740311 0.010697234422 10.169142723 -17.023979187 4.1282220309e-07
          -2.5527539253 -9.765996933 -1.4121802394e-07 6.808201313 -16.673181534 -0.31172513962
          -3.1474614143 -3.3808035851 0.15550366044 -1.8212556839 -1.9183529615 -1.2382821524e-07
          5.7901263237 -13.047559738 0.62926989794 -2.3406941891 -2.7281038761 -0.32306680083
          -0.11130602658 -12.849248886 -5.2815454232e-09 -3.5585336685 -7.3673005104 -2.4374600116e-07
          -0.44185850024 -9.5078401566 0.33028462529 6.8104939461 -16.69792366 2.8967551202e-07
          -3.1781215668 -3.4095547199 -2.2028864066e-07 -2.3911092281 -6.8197507858 0.19893804193
          13.643767357 -17.392002106 0.43281972408 3.5200545788 -16.378889084 -0.52846056223
          0 0 0 -3.4750878811 -5.6808772087 -0.43740254641
          3.503670454 -16.435222626 -0.26235753298 10.162661552 -16.995931625 0.37182965875
          -1.7703412771 -1.859326601 -0.30725127459 -2.5261743069 -9.7511043549 0.18848608434
          -3.8103713989 -5.4811506271 -0.1927793473 2.758710146 -12.836920738 0.49274128675
          -2.2146770954 -13.105668068 -0.59108436108 -0.10023032129 -12.829236984 0.20883661509
          -2.9862821102 -4.8459200859 0.069115892053 -3.5205745697 -7.3648076057 0.21797376871
          -3.3103635311 -10.603559494 -0.85794478655 -2.3093466759 -12.998276711 -0.28144332767
          3.5012242794 -16.454603195 1.6294227123e-07 6.808201313 -16.673181534 0.31172573566
          -3.1474614143 -3.3808035851 -0.15550407767 -3.4779763222 -10.373578072 -0.40665158629
          -3.8592562675 -5.4756774902 -2.9105595445e-07 15.002475739 -20.989667892 -0.80748587847
          0 0 0 -1.6303213835 -2.4086511135 0.60263067484
          -2.3274564743 -13.005220413 -1.3555067824e-07 0.46675565839 -16.329124451 -0.50756764412
          11.349868774 -20.616933823 -0.71554857492 13.613658905 -17.303028107 0.86735987663
          0 0 0 0 0 0
          -3.5014395714 -10.368686676 -2.6110041063e-07 -3.5390219688 -8.5595779419 -1.1029530764
          15.027246475 -21.057126999 -0.40290504694 0.4265858531 -16.324508667 -0.24970427155
          11.370052338 -20.683446884 -0.35626906157 10.138442993 -16.907779694 0.74654442072
          -1.7479518652 -2.4203958511 0.24662923813 -2.4069292545 -9.8064718246 0.40522477031
          -1.7204036713 -1.7542606592 -0.7416293025 -3.7948863506 -8.2641506195 -0.52492266893
          3.503670454 -16.435222626 0.2623578608 -3.8103711605 -5.4811506271 0.19277879596
          7.8149342537 -20.312070847 -0.62516599894 -0.047607555985 -12.801229477 0.42611712217
          -3.3017654419 -7.5239686966 0.48162600398 0 0 0
          -2.4784383774 -4.4525260925 -0.34552612901 15.030362129 -21.079082489 6.4290099999e-07
          -1.7714985609 -2.4896600246 -1.5211077198e-07 0.41915434599 -16.33618927 2.8683388109e-08
          7.8189835548 -20.369419098 -0.31059971452 6.8048677444 -16.593864441 0.6275395155
          11.375585556 -20.704242706 5.0663390994e-07 -2.8613290787 -3.3975822926 -0.2449349463
          -3.8335793018 -8.2364711761 -3.273616187e-07 -2.8370978832 -4.2552175522 -0.11116462201
          -2.3093466759 -12.998275757 0.28144308925 -3.4779760838 -10.373578072 0.40665107965
          -3.0241656303 -13.940991402 -1.1577006578 7.8214125633 -20.386842728 3.6752663846e-07
          -2.8140697479 -4.2812027931 -2.5138919568e-07 -3.1238303185 -13.695446014 -0.5547068119
          4.3288345337 -20.092557907 -0.55607235432 0 0 0
          -2.6629796028 -7.15020895 -1.3040291071 15.027246475 -21.057126999 0.40290632844
          -1.7479518652 -2.4203958511 -0.24662950635 0.42658597231 -16.324508667 0.24970433116
          4.3180613518 -20.126443863 -0.27639999986 3.5200548172 -16.378889084 0.52846086025
          11.370052338 -20.683444977 0.35627007484 -1.8364009857 -16.632648468 -0.74506509304
          -3.120418787 -11.778230667 -1.5451669693 -3.4750878811 -5.6808772087 0.43740206957
          -2.8770008087 -6.895210743 -0.60750353336 -3.7948861122 -8.2641506195 0.52492201328
          -1.8999615908 -16.493516922 -0.35776808858 -3.2338581085 -11.532748222 -0.75004845858
          -3.1310117245 -13.68883419 -2.6535522579e-07 -2.214676857 -13.105668068 0.59108412266
          7.8189835548 -20.369419098 0.31060045958 -3.3103632927 -10.603559494 0.85794436932
          4.3170251846 -20.13879776 2.2472403316e-07 -2.8370978832 -4.2552175522 0.11116415262
          -2.8621294498 -6.8989171982 -3.0748708468e-07 -1.9097748995 -16.496328354 -1.1988112192e-07
          -3.2490210533 -11.505701065 -3.332792744e-07 -2.3861951828 -10.107656479 -1.6905657053
          1.0831028223 -20.024963379 -0.56960052252 15.002475739 -20.989667892 0.80748713017
          0 0 0 -3.12383008 -13.695446014 0.55470633507
          -1.6303213835 -2.4086511135 -0.60263091326 -2.3899753094 -10.0233078 -0.8339009881
          0.466755867 -16.329122543 0.50756776333 11.349868774 -20.616933823 0.7155495882
          1.0567003489 -19.998355865 -0.28122419119 16.303215027 -24.80721283 -0.76023280621
          0 0 0 -3.5390217304 -8.5595769882 1.1029525995
          16.322986603 -24.858423233 -0.37931776047 -1.1166563034 -3.1558129787 0.071128286421
          12.51403904 -24.45243454 -0.69006967545 4.3180613518 -20.126443863 0.27640044689
          0 0 0 -2.8770005703 -6.8952102661 0.60750299692
          12.530548096 -24.5026474 -0.34354761243 -1.3104555607 -3.0562102795 0.017879918218
          -1.8999614716 -16.493516922 0.35776787996 -3.2338578701 -11.532748222 0.75004780293
          7.8149347305 -20.312068939 0.6251667738 -2.3677902222 -10.017627716 -3.1384598742e-07
          1.0525778532 -20.004426956 7.356342735e-08 -2.4784383774 -4.4525256157 0.34552574158
          -2.4473102093 -17.462711334 -1.3411300182 -1.4066281319 -5.7745089531 -0.95507758856
          8.8190822601 -24.15470314 -0.62135946751 -2.3900511265 -15.117032051 -1.6798728704
          16.325870514 -24.874969482 7.5855894011e-07 0 0 0
          -2.4720249176 -17.25604248 -0.64318263531 12.535211563 -24.518014908 6.0782639366e-07
          -1.2918860912 -3.1122627258 -1.1131251654e-07 8.8241882324 -24.195819855 -0.30884614587
          -1.5459737778 -5.7215399742 -0.43892854452 -2.3695938587 -15.014743805 -0.82745808363
          -3.0241651535 -13.940991402 1.1577003002 -2.4661595821 -17.250299454 -2.4954206879e-07
          -1.9104936123 -13.124379158 -1.640942812 -2.389975071 -10.0233078 0.83390039206
          -1.2948744297 -20.297950745 -0.84802538157 8.8267765045 -24.207952499 4.5387025693e-07
          4.3288350105 -20.092556 0.55607283115 1.0567004681 -19.998355865 0.2812243402
          -2.362411499 -14.99956131 -3.1390561617e-07 -1.5056085587 -5.7198219299 -1.5884344862e-07
          -2.6629796028 -7.15020895 1.304028511 16.322986603 -24.858423233 0.37931928039
          5.1744680405 -23.930114746 -0.57449311018 -1.8114631176 -13.225534439 -0.83717298508
          -1.3064962626 -8.5522270203 -1.2690969706 -1.3250924349 -20.151773453 -0.40912345052
          -1.8364007473 -16.632646561 0.74506491423 -3.1204185486 -11.778230667 1.5451664925
          0 0 0 -1.2545462847 -8.7592725754 -0.6486184597
          12.530548096 -24.5026474 0.34354883432 -1.3104555607 -3.0562102795 -0.017880123109
          5.1694555283 -23.948532104 -0.28591784835 -1.7866597176 -13.228524208 -2.9726456319e-07
          -1.3282809258 -20.153100967 -8.8851088265e-08 -2.4720244408 -17.25604248 0.64318221807
          5.1696743965 -23.956201553 2.9627537401e-07 -1.2281460762 -8.757894516 -1.7735304425e-07
          8.8241882324 -24.195817947 0.30884706974 -1.5459737778 -5.7215399742 0.4389282167
          -2.3695936203 -15.014743805 0.82745748758 -2.3861951828 -10.107656479 1.6905652285
          1.0831030607 -20.024963379 0.56960070133 1.7851372957 -23.840843201 -0.61056315899
          16.303215027 -24.80721283 0.76023429632 0 0 0
          -1.1105672121 -11.316569328 -1.1632512808 -1.1166563034 -3.1558132172 -0.071128442883
          12.51403904 -24.45243454 0.69007092714 -1.8114629984 -13.225534439 0.83717238903
          -1.3250921965 -20.151773453 0.40912330151 1.7721216679 -23.803087234 -0.3021261692
          -1.541831851 -18.49461937 -1.5578968525 -1.0090879202 -11.69029808 -0.61506587267
          -1.2545462847 -8.7592725754 0.64861810207 5.1694555283 -23.948532104 0.2859184444
          -1.4380413294 -18.529891968 -0.78120809793 -1.6508353949 -21.035081863 -1.36807096
          -1.3789579868 -16.173143387 -1.4096400738 17.536560059 -28.720802307 -0.72515076399
          0 0 0 13.640067101 -28.379331589 -0.66969645023
          -2.447309494 -17.462709427 1.3411297798 -1.4066281319 -5.7745089531 0.95507729053
          8.8190832138 -24.15470314 0.62136036158 -1.2488589287 -16.390434265 -0.73258584738
          -1.6090726852 -20.904338837 -0.66013491154 -2.3900506496 -15.117032051 1.6798723936
          17.551597595 -28.7609272 -0.36174374819 0 0 0
          -0.98676627874 -11.721222878 -1.8642482758e-07 1.7708735466 -23.806201935 1.3055222325e-07
          0.063209049404 -3.6090893745 -0.036763779819 13.653107643 -28.418464661 -0.33340844512
          0.063837841153 -3.6167387962 -0.015901364386 -1.4159835577 -18.528850555 -2.7669116776e-07
          9.8158435822 -28.086874008 -0.61562246084 -1.2252595425 -16.4132061 -2.7376813705e-07
          -1.5936775208 -20.902179718 -2.0518689325e-07 17.554262161 -28.773742676 8.8146146027e-07
          0 0 0 0.098152391613 -6.3771080971 -0.020903974771
          9.8219432831 -28.117351532 -0.30618861318 13.656939507 -28.430143356 7.1718153549e-07
          -1.9104934931 -13.124379158 1.6409422159 -1.2948740721 -20.297948837 0.84802532196
          0.064807787538 -3.6290771961 5.6162289042e-08 0.10182853788 -6.6977119446 -0.011310358532
          5.1744680405 -23.930114746 0.57449370623 -1.3064963818 -8.5522270203 1.2690966129
          -0.90006029606 -14.093344688 -0.96293908358 -0.60527384281 -24.053668976 -0.89482808113
          -1.0090880394 -11.69029808 0.61506551504 1.7721219063 -23.803087234 0.30212643743
          -0.79712343216 -14.519495964 -0.51252037287 -0.60553848743 -23.921768188 -0.43238642812
          -1.4380409718 -18.529891968 0.78120750189 9.8246002197 -28.126125336 5.4920820958e-07
          0.10171446949 -6.6555700302 5.8365554167e-08 6.045943737 -27.85720253 -0.58337002993
          -1.2488588095 -16.390434265 0.73258531094 -1.6090722084 -20.904338837 0.66013455391
          17.551597595 -28.7609272 0.36174550653 0 0 0
          0.11551371962 -9.1040201187 -0.012628713623 6.0461611748 -27.866758347 -0.2906332314
          13.653107643 -28.418462753 0.33340990543 0.11699638516 -9.6408929825 -0.0067094480619
          -0.77932453156 -14.583252907 -1.9426987308e-07 -0.60364305973 -23.922964096 -3.8261905644e-08
          0.063837781549 -3.6167387962 0.01590145193 9.8219432831 -28.117349625 0.30618971586
          6.0472841263 -27.871915817 3.7829445887e-07 0.11704083532 -9.6571846008 2.5521821101e-08
          1.7851376534 -23.840843201 0.61056345701 -0.73056143522 -21.822061539 -1.3221356869
          0.10182841122 -6.6977119446 0.011310459115 -1.1105673313 -11.316569328 1.1632509232
          -0.85003995895 -19.260906219 -1.1348103285 -0.59889447689 -21.938018799 -0.67324155569
          -1.5418313742 -18.49461937 1.5578963757 -0.71852749586 -19.521823883 -0.59565156698
          -0.79712343216 -14.519495964 0.51252001524 -0.60553818941 -23.921768188 0.43238636851
          -1.6508346796 -21.035081863 1.3680707216 -1.3789577484 -16.173143387 1.4096395969
          0.12553609908 -11.787706375 -0.010387378745 2.5553302765 -27.744796753 -0.63132071495
          17.536560059 -28.720802307 0.72515255213 0 0 0
          13.640068054 -28.379331589 0.66969788074 0.12574630976 -12.372471809 -0.0053299581632
          -0.56959718466 -21.949390411 -2.3396123083e-07 -0.68393212557 -16.907556534 -0.7624117136
          -0.7357250452 -24.628419876 -1.2682832479 2.5538842678 -27.705064774 -0.31240788102
          0.063208967447 -3.609089613 0.03676378727 -0.69501250982 -19.563882828 -2.5210735544e-07
          6.0461616516 -27.866758347 0.29063397646 0.11699622869 -9.6408929825 0.0067094955593
          -0.65079981089 -24.575906754 -0.61747354269 -0.59037232399 -17.316923141 -0.40340837836
          9.8158435822 -28.086874008 0.61562359333 0.12565881014 -12.44475174 -1.920152215e-08
          2.5545251369 -27.707290649 2.0192747741e-07 0.098152197897 -6.3771080971 0.0209040232
          -0.62900674343 -24.577613831 -1.4162628759e-07 18.722663879 -32.708431244 -0.70139092207
          0 0 0 -0.57666879892 -17.399740219 -2.0313599691e-07
          18.733215332 -32.742115021 -0.34976401925 0 0 0
          -0.59889411926 -21.938018799 0.67324107885 14.736886024 -32.375621796 -0.65420359373
          -0.90006035566 -14.093344688 0.96293872595 -0.60527336597 -24.053668976 0.89482814074
          1.2080526352 -3.1581764221 -0.135815382 -0.71852731705 -19.521823883 0.59565103054
          14.746498108 -32.408351898 -0.32578361034 1.3955529928 -3.0700998306 -0.044192701578
          6.0459442139 -27.85720253 0.58337080479 18.735563278 -32.752689362 1.012669486e-06
          0.12574614584 -12.372471809 0.0053299232386 10.803198814 -32.086174011 -0.60815024376
          1.5719664097 -5.7724084854 0.90270400047 2.5538845062 -27.705062866 0.31240829825
          0 0 0 0.20839840174 -27.883653641 -0.88988250494
          0.13273786008 -14.475027084 -0.010330807418 0.11551345885 -9.1040201187 0.012628744356
          1.7195150852 -5.72286129 0.41231369972 10.809622765 -32.111057281 -0.30282944441
          14.749520302 -32.417869568 8.3476260215e-07 -0.65079927444 -24.575906754 0.61747330427
          0.13232044876 -15.019993782 -0.0051974952221 0.23214659095 -27.780353546 -0.43009161949
          -0.59037232399 -17.316923141 0.40340799093 1.3792829514 -3.1280200481 1.5481791138e-07
          -0.35679012537 -22.369232178 -0.89098769426 10.812262535 -32.118144989 6.5375638769e-07
          -0.73056089878 -21.822061539 1.32213521 1.6789357662 -5.723590374 2.1400722972e-07
          0.13211634755 -15.121933937 -6.7132063464e-08 -0.2365860045 -22.626346588 -0.46749013662
          0.23747462034 -27.782411575 3.5099304796e-08 -0.85003978014 -19.260906219 1.1348097324
          18.733215332 -32.742115021 0.34976604581 6.9318270683 -31.851224899 -0.58330911398
          -0.46072733402 -19.782388687 -0.58797419071 0 0 0
          1.5161515474 -8.5541410446 1.2380442619 0.014183760621 -25.168041229 -1.0787473917
          1.4693132639 -8.760011673 0.63213324547 6.9358487129 -31.857810974 -0.29098117352
          14.746498108 -32.408351898 0.32578530908 -0.38025343418 -20.142515182 -0.3082203567
          0.14369693398 -25.317150116 -0.55338317156 1.3955528736 -3.0700995922 0.04419297725
          0.12553580105 -11.787706375 0.010387343355 2.5553307533 -27.744796753 0.63132113218
          -0.21236100793 -22.679487228 -2.3938267191e-07 -0.68393218517 -16.907556534 0.76241129637
          -0.73572421074 -24.628417969 1.2682830095 6.9375071526 -31.862257004 4.7129634595e-07
          10.809622765 -32.111057281 0.30283075571 -0.36881291866 -20.231033325 -2.1564922292e-07
          1.7195148468 -5.72286129 -0.41231331229 1.4432826042 -8.760222435 1.8656595557e-07
          0.13232026994 -15.019993782 0.0051973657683 0.23214694858 -27.780353546 0.4300917089
          0.17423857749 -25.337003708 -1.9253342032e-07 0.20105332136 -28.271207809 -1.099432826
          0.13882027566 -17.201583862 -0.011047642678 0.30301100016 -28.277477264 -0.5411657095
          0.13812413812 -17.672346115 -0.0055072968826 18.722663879 -32.708431244 0.70139294863
          0 0 0 -0.23658588529 -22.626344681 0.46748965979
          1.3445932865 -11.323420525 1.13966012 3.3758380413 -31.714036942 -0.63251036406
          1.2445123196 -11.695802689 0.60267412663 14.736886024 -32.375621796 0.65420526266
          1.208052516 -3.1581761837 0.13581557572 3.3831233978 -31.679771423 -0.31296885014
          6.9358487129 -31.857810974 0.29098212719 -0.38025349379 -20.142515182 0.30821990967
          1.4693129063 -8.760011673 -0.63213288784 0.14369727671 -25.317148209 0.55338275433
          0.32768172026 -28.282793045 -7.5462438076e-08 0.13784435391 -17.782655716 -1.1627209773e-07
          10.803199768 -32.086174011 0.60815155506 1.5719660521 -5.7724084854 -0.90270370245
          0.20839896798 -27.883651733 0.88988268375 1.2223504782 -11.727467537 1.1973746439e-07
          0.13273754716 -14.475027084 0.010330683552 3.3846681118 -31.682462692 2.8729627388e-07
          19.879484177 -36.76039505 -0.68752712011 0 0 0
          -0.35678994656 -22.369232178 0.89098715782 0.3030115068 -28.277477264 0.54116559029
          0 0 0 15.813276291 -36.432231903 -0.64390683174
          -0.24084404111 -22.736194611 -0.44955176115 0.1381239593 -17.672346115 0.0055070682429
          1.6801553965 -2.4163615704 -0.63841044903 0.087784513831 -25.544218063 -0.69376432896
          19.885915756 -36.791248322 -0.34277850389 6.9318275452 -31.851222992 0.58331006765
          15.819535255 -36.462188721 -0.32081067562 1.7893463373 -2.4365215302 -0.26092514396
          -0.46072742343 -19.782388687 0.58797377348 -0.17430506647 -23.038215637 -0.23299430311
          1.5161510706 -8.5541410446 -1.2380439043 1.1001591682 -31.764968872 -0.8390506506
          1.2445119619 -11.695802689 -0.60267388821 0.014184280299 -25.168041229 1.0787470341
          1.1503616571 -14.104298592 0.94063353539 3.3831236362 -31.679771423 0.31296941638
          0.19109322131 -25.774787903 -0.36186814308 1.0471475124 -14.529397964 0.50104445219
          1.1392621994 -31.695905685 -0.40737211704 11.781017303 -36.142696381 -0.60130274296
          19.887825012 -36.800815582 1.1497123751e-06 2.5788369179 -4.4561991692 0.29830595851
          0 0 0 11.786652565 -36.165920258 -0.29973557591
          2.9369220734 -4.2695808411 0.088893987238 15.821819305 -36.470813751 9.5905738817e-07
          0.69833314419 -28.60026741 -0.86120480299 -0.1638635695 -23.122699738 -2.3495496748e-07
          0.21418587863 -25.829853058 -2.3111498137e-07 0.14445227385 -19.996513367 -0.012024153955
          1.8142387867 -2.5069172382 1.4076168497e-07 0.81414890289 -28.753816605 -0.44323965907
          1.1466646194 -31.698829651 1.2045744313e-07 0.14363418519 -20.385295868 -0.0059769321233
          1.0291833878 -14.593505859 3.985842767e-08 0.20105409622 -28.271207809 1.0994327068
          11.789108276 -36.172641754 7.6714638908e-07 0.13881994784 -17.201583862 0.011047417298
          2.9139304161 -4.2968139648 2.1501391245e-07 7.8230452538 -35.900260925 -0.57800942659
          19.885915756 -36.791248322 0.34278079867 0.84308069944 -28.779109955 -1.5768684136e-07
          2.8116586208 -7.15518713 1.2628418207 1.3445928097 -11.323421478 -1.1396598816
          0.14331275225 -20.490896225 -1.6681327963e-07 3.3758385181 -31.714036942 0.6325109601
          0 0 0 7.8287978172 -35.908340454 -0.28863725066
          3.0305175781 -6.9049324989 0.58779788017 15.819535255 -36.462188721 0.32081261277
          -0.17430509627 -23.038215637 0.23299384117 0.19109335542 -25.774787903 0.36186766624
          1.7893462181 -2.4365215302 0.26092541218 1.139262557 -31.695905685 0.40737238526
          1.047147274 -14.529397964 -0.50104439259 11.786653519 -36.165920258 0.29973712564
          7.8306546211 -35.913326263 5.7450836266e-07 1.0964524746 -31.964693069 -0.91889613867
          0.94715869427 -16.922039032 0.73930954933 3.0163962841 -6.9098548889 2.2555785506e-07
          2.9369218349 -4.2695803642 -0.088893577456 0.85255867243 -17.330604553 0.39165863395
          0.81414920092 -28.753816605 0.44323933125 1.1946237087 -32.005638123 -0.45711582899
          0.14363399148 -20.385295868 0.0059766001068 4.2278113365 -35.735443115 -0.61885595322
          19.879484177 -36.760391235 0.68752944469 0 0 0
          2.5694243908 -10.120622635 1.6591008902 4.240541935 -35.711868286 -0.30653145909
          15.813277245 -36.432231903 0.64390873909 2.5765919685 -10.037471771 0.81824791431