<?xml version="1.0"?>
<VTKFile type="UnstructuredGrid" version="0.1" byte_order="LittleEndian" header_type="UInt32" compressor="vtkZLibDataCompressor">
  <UnstructuredGrid>
    <Piece NumberOfPoints="6405" NumberOfCells="4800">
      <PointData>
        <DataArray type="Float32" Name="DISPLACEMENT" NumberOfComponents="3" ComponentName0="X-DISPLACEMENT" ComponentName1="Y-DISPLACEMENT" ComponentName2="Z-DISPLACEMENT" format="ascii" RangeMin="0" RangeMax="336.70270983">
          0 0 0 0 0 0
          2.670696497 -1.5866758823 -1.2228902578 0 0 0
          1.6033308506 -0.90739542246 -0.86261087656 0 0 0
          2.4530639648 -1.7959941626 -0.48107606173 1.4000731707 -1.0845521688 -0.35181623697
          0 0 0 4.8215413094 -3.1898579597 -1.2385452986
          0 0 0 4.7625880241 -3.4267606735 -0.63265454769
          3.2057483196 -2.6742544174 -0.95781993866 0 0 0
          0 0 0 2.4655008316 -1.8573676348 -2.2684599088e-08
          0.94138771296 -0.5916121006 -0.55465269089 1.3961347342 -1.1139096022 -2.6613293791e-09
          3.1383860111 -2.8669264317 -0.48787716031 0.79700243473 -0.75909340382 -0.2316352874
          4.7115988731 -3.4900960922 -2.7715064022e-08 1.9079924822 -2.2954325676 -0.67098206282
          0 0 0 3.098221302 -2.9252066612 7.0533521246e-09
          1.8285179138 -2.4669702053 -0.34573462605 0 0 0
          6.7081985474 -5.3654851913 -1.1332041025 0 0 0
          0.79214584827 -0.78303974867 1.5112828322e-08 0 0 0
          0 0 0 2.4530642033 -1.7959941626 0.48107603192
          4.6860141754 -4.8934626579 -0.91996634007 6.7344293594 -5.5310525894 -0.5756342411
          0.19511198997 -0.47866547108 -0.22564642131 1.4000731707 -1.0845521688 0.35181623697
          4.7032022476 -5.0467691422 -0.46811383963 0.075856685638 -0.65764498711 -0.11618876457
          1.7992690802 -2.5160663128 3.9648782035e-08 4.762588501 -3.4267606735 0.63265448809
          0 0 0 0 0 0
          0.56074732542 -2.1014413834 -0.41535621881 2.975675106 -4.5504746437 -0.72258150578
          6.7159605026 -5.588201046 -2.2363089158e-08 3.1383860111 -2.8669264317 0.48787719011
          2.954328537 -4.6875429153 -0.36674758792 0.79700243473 -0.75909346342 0.23163531721
          4.6933498383 -5.0960607529 2.6361886896e-08 0.469304353 -2.2596633434 -0.21976460516
          0.057557359338 -0.68614053726 3.3213474637e-08 0 0 0
          8.3811769485 -7.8294415474 -0.98370414972 0 0 0
          6.0800442696 -7.4082055092 -0.84575474262 1.8285179138 -2.4669702053 0.34573468566
          8.4349470139 -7.9385123253 -0.49860239029 2.670696497 -1.5866760015 1.2228902578
          0 0 0 0 0 0
          0.44900316 -2.3080615997 7.1628249998e-08 2.9450316429 -4.7312283516 7.249411027e-08
          -0.45400416851 -0.63183772564 0.0039266813546 6.1251530647 -7.5141239166 -0.42636990547
          1.6033308506 -0.90739548206 0.86261087656 1.2437741756 -4.3183546066 -0.55430525541
          0 0 0 6.7344293594 -5.5310525894 0.5756342411
          -0.56716239452 -0.79785662889 -0.017625967041 1.1989477873 -4.4367980957 -0.27910858393
          4.7032022476 -5.0467691422 0.46811389923 0.075856693089 -0.65764504671 0.11618883163
          4.0772013664 -7.0847859383 -0.71584862471 -0.50282400846 -2.1482231617 -0.27240616083
          8.4345750809 -7.9766430855 -6.3441922826e-09 4.8215413094 -3.1898581982 1.2385452986
          0 0 0 0 0 0
          4.0900201797 -7.1821599007 -0.36028066278 3.2057483196 -2.6742544174 0.95781993866
          6.1322808266 -7.5508008003 5.3958167712e-08 -0.59193754196 -2.2724280357 -0.13182128966
          0.94138777256 -0.59161221981 0.55465269089 -0.58992290497 -0.84913176298 5.5866298254e-08
          1.1895399094 -4.4759497643 1.1920777609e-07 2.954328537 -4.6875429153 0.36674773693
          0.4693043828 -2.2596635818 0.21976475418 4.0918550491 -7.2163319588 1.1205536055e-07
          1.9079926014 -2.295432806 0.67098218203 -0.59679269791 -2.3258152008 1.1194266847e-07
          2.1340270042 -6.8420386314 -0.60603106022 8.4349470139 -7.9385123253 0.49860239029
          6.7081990242 -5.3654856682 1.1332041025 0 0 0
          9.8611373901 -10.454613686 -0.86041337252 0 0 0
          0 0 0 -0.17085160315 -4.253027916 -0.41936993599
          2.127194643 -6.9278035164 -0.30045372248 9.9149808884 -10.524837494 -0.43329280615
          7.377374649 -10.06952858 -0.77033084631 6.1251530647 -7.5141243935 0.42637002468
          -1.3140537739 -0.89690601826 0.17572776973 0 0 0
          4.6860141754 -4.8934631348 0.91996639967 0.19511203468 -0.47866553068 0.22564649582
          -0.21076740324 -4.3512158394 -0.2097094357 -0.56716239452 -0.7978566885 0.017626076937
          -1.4819741249 -1.0242271423 0.037293069065 1.1989477873 -4.4367985725 0.27910882235
          7.425614357 -10.141768456 -0.38564711809 4.0900201797 -7.1821599007 0.36028087139
          2.1250715256 -6.9572134018 1.7184748913e-07 9.9229698181 -10.55023098 1.9188899358e-08
          -1.6197401285 -2.3649272919 -0.24107167125 -0.59193748236 -2.2724282742 0.13182151318
          0 0 0 5.1609325409 -9.7607030869 -0.67971980572
          0.56074744463 -2.1014416218 0.41535639763 2.9756753445 -4.5504751205 0.72258168459
          -0.21318648756 -4.3878388405 1.7307924338e-07 7.4377174377 -10.167015076 8.8675449206e-08
          -1.5067833662 -1.0781160593 9.14649263e-08 -1.7173495293 -2.4227921963 -0.10698959976
          5.1870803833 -9.8298740387 -0.34001207352 8.3811769485 -7.8294415474 0.98370414972
          0 0 0 0.37335059047 -6.7015185356 -0.47592878342
          6.0800447464 -7.408205986 0.84575486183 -1.7159563303 -2.4680864811 1.624520678e-07
          0.35860100389 -6.7814464569 -0.2420642823 5.1934614182 -9.8537578583 1.5636527451e-07
          -0.4540040791 -0.63183778524 -0.0039265560918 2.1271948814 -6.9278035164 0.3004540801
          3.0606312752 -9.5253286362 -0.59411537647 9.9149808884 -10.524838448 0.43329286575
          -1.444201827 -4.4153079987 -0.39604577422 1.2437744141 -4.3183546066 0.55430555344
          0 0 0 -0.21076734364 -4.3512158394 0.20970977843
          3.0705800056 -9.5883665085 -0.29580703378 -1.4819741249 -1.0242271423 -0.037292886525
          -1.4946556091 -4.4622344971 -0.18195906281 7.425614357 -10.141769409 0.38564729691
          4.0772018433 -7.0847859383 0.71584886312 -0.50282388926 -2.1482231617 0.27240639925
          11.189100266 -13.169356346 -0.76858109236 0 0 0
          0.35817062855 -6.8056607246 2.3630569501e-07 8.5804510117 -12.814330101 -0.70529121161
          11.23391819 -13.217453003 -0.38524264097 0 0 0
          -2.2404413223 -1.2432771921 0.24600282311 8.6217384338 -12.865602493 -0.35162177682
          3.0726349354 -9.608669281 2.2608922734e-07 -2.4176826477 -1.3234786987 0.058314364403
          -1.7173494101 -2.4227921963 0.10698993504 -1.4914469719 -4.4976067543 2.3243767089e-07
          5.1870803833 -9.8298740387 0.34001237154 6.1916151047 -12.523308754 -0.63614112139
          -2.6793899536 -2.6763110161 -0.34269624949 11.243711472 -13.234660149 5.2528616123e-08
          0 0 0 -2.7961494923 -2.6431493759 -0.14544799924
          6.2182769775 -12.572983742 -0.31688839197 8.6335420609 -12.882991791 1.2893715962e-07
          -2.3297016621 -1.4104321003 1.3786653597e-07 2.1340272427 -6.8420391083 0.60603141785
          1.0181170702 -9.371972084 -0.50289565325 9.8611373901 -10.454614639 0.86041343212
          0 0 0 -1.0703018904 -6.8112421036 -0.47663033009
          0.35860109329 -6.7814464569 0.24206475914 -0.17085145414 -4.2530283928 0.41937029362
          7.3773751259 -10.06952858 0.77033102512 -1.3140536547 -0.89690613747 -0.17572756112
          -1.1065195799 -6.8420538902 -0.22184929252 1.0099238157 -9.4265756607 -0.25458464026
          3.0705800056 -9.5883665085 0.29580748081 -1.4946556091 -4.4622349739 0.18195952475
          6.2256736755 -12.588670731 2.0332296913e-07 -2.7877345085 -2.6724824905 2.1477875123e-07
          3.9319930077 -12.314476967 -0.56910526752 -2.4257543087 -4.7892708778 -0.53485196829
          -1.6197398901 -2.3649272919 0.24107202888 11.23391819 -13.217453003 0.38524273038
          5.1609330177 -9.7607040405 0.67972016335 0 0 0
          1.0110667944 -9.4439296722 2.9824181524e-07 -1.100297451 -6.8706331253 3.0086502534e-07
          3.9440882206 -12.355418205 -0.28450033069 8.6217384338 -12.865602493 0.35162204504
          -2.5099124908 -4.7389349937 -0.23145648837 -2.4176826477 -1.3234786987 -0.058314085007
          0.37335076928 -6.7015185356 0.47592926025 3.9482049942 -12.368788719 2.7909860023e-07
          6.2182769775 -12.572983742 0.3168887794 -2.7961494923 -2.6431496143 0.14544844627
          -2.4986722469 -4.7619185448 2.8752805292e-07 12.402162552 -15.94695282 -0.70324659348
          0 0 0 12.436057091 -15.982679367 -0.35136285424
          3.0606315136 -9.5253295898 0.59411585331 9.6983757019 -15.61755085 -0.65471464396
          -1.4442017078 -4.4153079987 0.39604628086 -0.56523066759 -9.4560251236 -0.54896193743
          -0.7077460289 -1.8693112135 0.35539075732 -1.1065194607 -6.8420538902 0.22184990346
          1.0099238157 -9.4265756607 0.25458523631 0 0 0
          9.7299633026 -15.655979156 -0.32560160756 -0.59421896935 -9.4572210312 -0.25865757465
          -0.70544570684 -1.9062926769 0.14213114977 1.7071350813 -12.18656826 -0.53020447493
          -2.0116147995 -7.2268919945 -0.67701637745 11.189100266 -13.169356346 0.76858121157
          0 0 0 8.5804510117 -12.814331055 0.70529150963
          12.444739342 -15.995084763 9.2206079216e-08 -2.0766625404 -7.1466960907 -0.29984816909
          1.7002298832 -12.210066795 -0.26472693682 -2.2404410839 -1.2432773113 -0.24600252509
          7.1598591805 -15.348510742 -0.59990274906 -1.7307273149 -3.2705798149 0.1566657871
          0 0 0 3.944088459 -12.355418205 0.28450089693
          -2.5099124908 -4.7389349937 0.23145706952 9.7395906448 -15.668262482 1.7339642966e-07
          -0.58482778072 -9.4783535004 3.6689147009e-07 7.1816592216 -15.383728981 -0.29759186506
          -1.9028561115 -3.3579752445 0.017086124048 -0.74809509516 -1.9359453917 1.1330864425e-07
          6.1916155815 -12.523309708 0.63614153862 -2.6793897152 -2.6763112545 0.34269672632
          1.7017034292 -12.221904755 3.5700128365e-07 -2.05946064 -7.1656298637 3.578794292e-07
          1.0181171894 -9.371972084 0.50289624929 7.1881895065 -15.393549919 2.5245665825e-07
          -1.873365283 -3.3541176319 2.461474935e-07 -1.070301652 -6.8112425804 0.47663098574
          12.436058044 -15.982679367 0.35136306286 4.7399935722 -15.170308113 -0.55153274536
          0 0 0 -2.9244718552 -5.2938365936 -0.59244400263
          4.7499160767 -15.191015244 -0.27531069517 9.7299633026 -15.655979156 0.32560196519
          -0.70544570684 -1.9062926769 -0.14213091135 -0.59421885014 -9.4572210312 0.25865831971
          -3.0442712307 -5.2433238029 -0.30776959658 3.9319930077 -12.314476967 0.56910580397
          0.030771974474 -12.282629967 -0.62193566561 1.7002300024 -12.210067749 0.26472765207
          -2.4257540703 -4.7892713547 0.53485262394 -2.0766625404 -7.1466960907 0.29984891415
          -1.5027788877 -9.9036626816 -0.79572635889 0.015497799963 -12.251627922 -0.2960138917
          4.7533168793 -15.198376656 3.3241369124e-07 7.1816592216 -15.383728981 0.2975923717
          -1.9028561115 -3.3579752445 -0.017085624859 -1.5352543592 -9.7988395691 -0.36352610588
          -2.9884586334 -5.2328882217 3.5830728962e-07 13.531151772 -18.774486542 -0.65853565931
          0 0 0 -0.47415685654 -2.1723453999 0.25901034474
          0.028122799471 -12.264777184 4.3039929665e-07 2.4100754261 -15.082893372 -0.55429327488
          10.747570992 -18.463834763 -0.61839318275 12.402162552 -15.94695282 0.70324677229
          0 0 0 0 0 0
          -1.5138449669 -9.8102636337 4.2816029122e-07 -2.7013175488 -7.7879624367 -0.91015684605
          13.55471611 -18.803302765 -0.32848164439 2.4063994884 -15.077954292 -0.27438348532
          10.769735336 -18.494550705 -0.30718573928 9.6983757019 -15.617551804 0.65471500158
          -0.48046007752 -2.1601502895 0.11614963412 -0.56523036957 -9.4560251236 0.54896271229
          -0.70774585009 -1.8693113327 -0.3553905189 -2.7579536438 -7.6390576363 -0.44814959168
          4.7499160767 -15.191015244 0.27531138062 -3.0442709923 -5.2433242798 0.30777034163
          8.0759916306 -18.20996666 -0.57258605957 1.7071353197 -12.18656826 0.53020524979
          -2.0116145611 -7.2268919945 0.67701715231 0 0 0
          -1.0644491911 -4.0705580711 0.1282043457 13.561325073 -18.81294632 1.3610889482e-07
          -0.49303048849 -2.1783554554 1.1312392445e-07 2.4068205357 -15.083702087 4.1547761498e-07
          8.0922212601 -18.235832214 -0.28355303407 7.1598591805 -15.348510742 0.5999032259
          10.776803017 -18.503746033 2.2058630123e-07 -1.7307270765 -3.2705798149 -0.15666531026
          -2.7551276684 -7.6174345016 4.3326159016e-07 -1.1629570723 -4.0948872566 0.088632375002
          0.015497971326 -12.251627922 0.29601478577 -1.5352541208 -9.7988405228 0.36352699995
          -0.95191967487 -12.754858971 -0.86491507292 8.097237587 -18.241937637 3.0376097016e-07
          -1.1953697205 -4.1130108833 2.5638391321e-07 -0.94592505693 -12.647690773 -0.40682113171
          5.5028381348 -18.048927307 -0.53636008501 0 0 0
          -1.7647768259 -5.9535531998 0.0028008392546 13.55471611 -18.803302765 0.32848191261
          -0.48046004772 -2.1601502895 -0.11614941061 2.4063997269 -15.077954292 0.27438431978
          5.5115971565 -18.056598663 -0.26779463887 4.7399935722 -15.170308113 0.55153340101
          10.769735336 -18.494550705 0.30718618631 0.66292411089 -15.21643734 -0.67271369696
          -2.2074489594 -10.517403603 -1.0212032795 -2.9244716167 -5.2938370705 0.59244477749
          -1.9810913801 -6.0724644661 -0.093364410102 -2.7579534054 -7.6390576363 0.44815048575
          0.66561937332 -15.163632393 -0.32324969769 -2.2116272449 -10.371143341 -0.50988268852
          -0.92256349325 -12.650295258 4.9718966011e-07 0.030772285536 -12.28263092 0.62193655968
          8.0922212601 -18.235834122 0.28355365992 -1.5027786493 -9.9036626816 0.79572725296
          5.5139837265 -18.059473038 3.8772094513e-07 -1.1629570723 -4.0948872566 -0.088631868362
          -1.9980661869 -6.0688538551 4.0757689135e-07 0.67968815565 -15.16908741 4.9245852551e-07
          -2.2017576694 -10.34360981 5.0911091876e-07 -2.9751262665 -8.3840551376 -0.84917622805
          3.0874779224 -17.993206024 -0.55929774046 13.531151772 -18.774486542 0.65853589773
          0 0 0 -0.94592487812 -12.647690773 0.40682214499
          -0.47415670753 -2.1723453999 -0.25901010633 -3.0833220482 -8.3494138718 -0.49674105644
          2.4100756645 -15.082893372 0.55429410934 10.747570992 -18.463834763 0.61839359999
          3.089641571 -17.971223831 -0.27794831991 14.603007317 -21.644701004 -0.63052505255
          0 0 0 -2.7013173103 -7.7879629135 0.91015774012
          14.617598534 -21.670000076 -0.31431406736 -0.25216385722 -2.3568809032 0.1410189569
          11.74994278 -21.345050812 -0.59468466043 5.5115971565 -18.056598663 0.26779541373
          0 0 0 -1.9810913801 -6.0724644661 0.093365222216
          11.763771057 -21.371587753 -0.29542928934 -0.24325172603 -2.3214864731 0.065895475447
          0.66561955214 -15.163632393 0.32325071096 -2.2116272449 -10.371143341 0.5098837018
          8.0759916306 -18.20996666 0.57258671522 -3.0248265266 -8.3079366684 5.3969353075e-07
          3.0899841785 -17.972284317 4.7390159352e-07 -1.0644489527 -4.0705580711 -0.12820385396
          -0.40780714154 -15.68466568 -0.87260735035 -0.55425733328 -4.4577794075 0.12624131143
          8.9589233398 -21.094358444 -0.55380940437 -1.6871656179 -13.414023399 -1.0549055338
          14.622121811 -21.678197861 1.8144127978e-07 0 0 0
          -0.3762883544 -15.591680527 -0.42065644264 11.768467903 -21.37912941 2.6827294164e-07
          -0.25489225984 -2.3311238289 1.082278871e-07 8.9700574875 -21.115480423 -0.27441784739
          -0.60766524076 -4.4628915787 0.067208647728 -1.6538720131 -13.291254997 -0.52684611082
          -0.95191931725 -12.754859924 0.8649160862 -0.35222280025 -15.588212013 5.6065408671e-07
          -2.7759430408 -11.221673012 -1.2072505951 -3.0833220482 -8.3494138718 0.49674215913
          1.2777081728 -18.153579712 -0.68633979559 8.9740581512 -21.119813919 3.5490398886e-07
          5.5028386116 -18.048927307 0.53636085987 3.089641571 -17.971225739 0.27794927359
          -1.6367545128 -13.2653265 5.740960205e-07 -0.62168586254 -4.4763712883 2.4953499178e-07
          -1.7647765875 -5.9535531998 -0.0028001009487 14.617598534 -21.670000076 0.31431445479
          6.236342907 -20.926582336 -0.5233656168 -2.7683820724 -11.079223633 -0.62254631519
          -0.97095018625 -6.624314785 -0.0048849238083 1.294344306 -18.092927933 -0.3334440589
          0.66292440891 -15.216438293 0.67271471024 -2.2074487209 -10.517404556 1.0212042332
          0 0 0 -1.0790985823 -6.6881594658 0.01012032479
          11.763771057 -21.371587753 0.29542982578 -0.24325169623 -2.3214862347 -0.06589525938
          6.2440142632 -20.929088593 -0.26156446338 -2.7514030933 -11.040892601 5.9941510244e-07
          1.309084177 -18.093294144 5.5034570323e-07 -0.37628814578 -15.59168148 0.42065757513
          6.2465162277 -20.92971611 4.4201885885e-07 -1.11665833 -6.7286462784 4.0418555614e-07
          8.9700574875 -21.115480423 0.27441856265 -0.60766518116 -4.4628915787 -0.06720815599
          -1.6538717747 -13.291254997 0.52684730291 -2.9751262665 -8.3840551376 0.84917736053
          3.0874781609 -17.993206024 0.55929869413 3.720348835 -20.872018814 -0.5513266325
          14.60300827 -21.644701004 0.63052541018 0 0 0
          -1.4222992659 -8.9619235992 -0.10992950946 -0.25216370821 -2.3568809032 -0.14101871848
          11.749943733 -21.345050812 0.59468513727 -2.768381834 -11.079223633 0.62254750729
          1.2943444252 -18.092927933 0.33344516158 3.7267448902 -20.843921661 -0.27535942197
          -1.1865640879 -16.355951309 -1.0246845484 -1.6523759365 -9.1988363266 -0.20006100833
          -1.0790985823 -6.6881594658 -0.010119534098 6.2440142632 -20.929088593 0.26156535745
          -1.1358115673 -16.260511398 -0.51124805212 0.1101314798 -18.580142975 -0.84318560362
          -2.2155168056 -14.2152071 -1.2322831154 15.641284943 -24.555286407 -0.6161865592
          0 0 0 12.724768639 -24.260959625 -0.58196395636
          -0.40780678391 -15.684666634 0.87260848284 -0.55425709486 -4.4577794075 -0.12624083459
          8.9589242935 -21.094358444 0.55381011963 -2.1671621799 -14.093600273 -0.6224437952
          0.15142706037 -18.502307892 -0.41320759058 -1.6871652603 -13.414023399 1.0549067259
          15.648571014 -24.579467773 -0.30717259645 0 0 0
          -1.6317083836 -9.1996059418 5.3467658745e-07 3.7282187939 -20.842540741 5.2912133697e-07
          -0.035519532859 -2.40964818 0.028141807765 12.731808662 -24.285739899 -0.28932452202
          -0.028304187581 -2.3705089092 0.012161364779 -1.1137782335 -16.2414608 6.2624957309e-07
          9.8323707581 -24.007432938 -0.5444457531 -2.143021822 -14.064042091 6.4168881408e-07
          0.17462624609 -18.495210648 6.1504897531e-07 15.651343346 -24.587181091 2.2435212088e-07
          0 0 0 -0.063230507076 -4.6014151573 0.035911537707
          9.8390388489 -24.026885986 -0.26996257901 12.734577179 -24.292743683 3.131912365e-07
          -2.7759428024 -11.221673012 1.2072517872 1.2777085304 -18.153579712 0.68634086847
          -0.028188085184 -2.3758101463 9.7107545116e-08 -0.059103984386 -4.5845265388 0.019140874967
          6.236342907 -20.926582336 0.52336651087 -0.97095000744 -6.624314785 0.0048856837675
          -2.6529200077 -12.197517395 -1.391733408 1.8629766703 -21.028751373 -0.67648792267
          -1.6523759365 -9.1988363266 0.20006209612 3.7267451286 -20.843921661 0.27536046505
          -2.6252558231 -12.108805656 -0.71364670992 1.8873913288 -20.968921661 -0.33088508248
          -1.1358113289 -16.260511398 0.51124930382 9.8421163559 -24.03106308 4.0303012838e-07
          -0.058233652264 -4.600894928 2.2566480595e-07 6.9812221527 -23.820203781 -0.5178630352
          -2.1671621799 -14.093601227 0.62244510651 0.15142726898 -18.502307892 0.41320881248
          15.648571014 -24.579467773 0.30717304349 0 0 0
          -0.086734846234 -6.7926254272 0.040830541402 6.9874148369 -23.822956085 -0.25805446506
          12.731808662 -24.285739899 0.28932514787 -0.086755223572 -6.8742055893 0.021452622488
          -2.5669586658 -12.078262329 6.4405429612e-07 1.9028176069 -20.966186523 6.0331421992e-07
          -0.028304163367 -2.3705089092 -0.012161171064 9.8390388489 -24.026885986 0.26996338367
          6.9902691841 -23.823516846 4.9280049552e-07 -0.087116405368 -6.9070196152 3.62619204e-07
          3.7203490734 -20.872018814 0.55132770538 -0.73424369097 -19.206895828 -0.96488696337
          -0.059103935957 -4.5845265388 -0.019140424207 -1.4222990274 -8.9619245529 0.10993052274
          -1.6969628334 -17.209703445 -1.184702754 -0.67779672146 -19.133037567 -0.48191303015
          -1.1865638494 -16.355951309 1.0246857405 -1.6250636578 -17.116012573 -0.59219175577
          -2.6252558231 -12.108805656 0.71364802122 1.8873915672 -20.968923569 0.33088630438
          0.11013182998 -18.580142975 0.84318679571 -2.2155163288 -14.2152071 1.2322844267
          -0.11357137561 -9.3222398758 0.045196563005 4.3528370857 -23.740602493 -0.54303491116
          15.641284943 -24.555286407 0.61618703604 0 0 0
          12.724768639 -24.260959625 0.58196461201 -0.11984651536 -9.4991874695 0.021550605074
          -0.65504640341 -19.11917305 6.6803630716e-07 -2.1570477486 -15.331674576 -1.487665534
          0.61951380968 -21.392284393 -0.80158430338 4.361225605 -23.713611603 -0.27073073387
          -0.035519395024 -2.40964818 -0.028141591698 -1.5978659391 -17.097002029 6.7007368898e-07
          6.9874148369 -23.822957993 0.25805544853 -0.086755186319 -6.8742055893 -0.021451909095
          0.66234713793 -21.326839447 -0.39614146948 -2.0280077457 -15.244357109 -0.7276802659
          9.8323717117 -24.007432938 0.54444652796 -0.12162161618 -9.5767526627 4.8967314115e-07
          4.3638930321 -23.711612701 5.806124932e-07 -0.063230320811 -4.6014151573 -0.035911094397
          0.68341958523 -21.317016602 6.6350372663e-07 16.664850235 -27.507492065 -0.61254733801
          0 0 0 -1.9859681129 -15.21544075 6.5175305508e-07
          16.666706085 -27.53254509 -0.30551451445 0 0 0
          -0.67779654264 -19.133037567 0.48191434145 13.687449455 -27.213935852 -0.57757133245
          -2.6529200077 -12.197517395 1.3917347193 1.8629769087 -21.028751373 0.67648917437
          0.18287752569 -2.3450319767 -0.085932224989 -1.6250635386 -17.116012573 0.59219306707
          13.689558029 -27.239078522 -0.28748658299 0.18772888184 -2.3066983223 -0.041971009225
          6.9812221527 -23.820203781 0.51786404848 16.668212891 -27.54054451 2.6004119036e-07
          -0.11984653026 -9.4991874695 -0.021549649537 10.708463669 -26.954244614 -0.5409924984
          0.43464657664 -4.4362974167 -0.056217398494 4.3612260818 -23.713611603 0.27073189616
          0 0 0 2.4492406845 -23.860097885 -0.65723025799
          -0.15848578513 -12.6762743 0.011841256171 -0.086734674871 -6.7926254272 -0.040829863399
          0.49294650555 -4.4342255592 -0.031059751287 10.712121964 -26.974546432 -0.26869121194
          13.690864563 -27.246406555 3.515912681e-07 0.66234737635 -21.326839447 0.39614278078
          -0.16869820654 -13.09605217 -0.002068805974 2.4767200947 -23.80581665 -0.32245698571
          -2.0280077457 -15.244357109 0.72768157721 0.19890813529 -2.3147118092 8.5638298231e-08
          -1.2645403147 -20.037416458 -1.0975574255 10.714266777 -26.979558945 4.4544432853e-07
          -0.73424333334 -19.206895828 0.96488827467 0.50953578949 -4.4460206032 1.9357510439e-07
          -0.16303913295 -12.947634697 5.9323292589e-07 -1.1812826395 -19.97454834 -0.54638075829
          2.4921498299 -23.801263809 6.5377901137e-07 -1.696962595 -17.209703445 1.1847040653
          16.666706085 -27.53254509 0.30551505089 7.7540555 -26.744684219 -0.51480513811
          -1.6374511719 -18.340429306 -1.3508554697 0 0 0
          0.80404913425 -6.5884432793 0.073584631085 -0.30594468117 -21.922908783 -0.89576768875
          0.91252988577 -6.6437902451 0.026742797345 7.7594408989 -26.751054764 -0.25626218319
          13.689558029 -27.239078522 0.28748729825 -1.4776533842 -18.326583862 -0.65675520897
          -0.24974893034 -21.866094589 -0.44833010435 0.18772889674 -2.3066983223 0.041971176863
          -0.11357129365 -9.3222398758 -0.045195676386 4.3528370857 -23.740602493 0.54303604364
          -1.155613184 -19.963071823 6.9124700985e-07 -2.1570477486 -15.331674576 1.4876668453
          0.61951416731 -21.392286301 0.80158561468 7.7619576454 -26.752901077 5.3929005617e-07
          10.712122917 -26.974546432 0.26869210601 -1.4414316416 -18.302480698 6.5450529974e-07
          0.49294653535 -4.4342255592 0.031060136855 0.94928646088 -6.6809034348 3.0046405186e-07
          -0.16869829595 -13.096053123 0.0020699859597 2.4767203331 -23.80581665 0.32245829701
          -0.2298258692 -21.853782654 7.0585571166e-07 1.1527100801 -24.138479233 -0.75741302967
          -0.16822940111 -16.324428558 -0.049506191164 1.1942073107 -24.085184097 -0.37598907948
          -0.15944260359 -16.82699585 -0.025087192655 16.664850235 -27.507492065 0.61254787445
          0 0 0 -1.1812825203 -19.97454834 0.54638212919
          1.2310558558 -8.9165182114 0.17782531679 5.0162935257 -26.625728607 -0.53268873692
          1.4544695616 -9.1409597397 0.22709897161 13.687449455 -27.213937759 0.57757204771
          0.1828776449 -2.3450317383 0.085932403803 5.0260105133 -26.604505539 -0.26517683268
          7.7594408989 -26.751054764 0.25626325607 -1.477653265 -18.32658577 0.65675652027
          0.91252988577 -6.6437897682 -0.026742206886 -0.24974873662 -21.866094589 0.44833150506
          1.2127240896 -24.074186325 7.1011930913e-07 -0.15734247863 -16.698644638 6.1501503978e-07
          10.708463669 -26.954244614 0.54099339247 0.43464672565 -4.4362974167 0.056217778474
          2.4492409229 -23.860097885 0.65723156929 1.4374393225 -9.1466112137 3.9665272311e-07
          -0.15848585963 -12.676275253 -0.011840158142 5.0287003517 -26.603532791 6.2999498596e-07
          17.688547134 -30.505746841 -0.61684376001 0 0 0
          -1.2645400763 -20.037416458 1.0975587368 1.1942074299 -24.085184097 0.37599050999
          0 0 0 14.64893055 -30.209745407 -0.57865095139
          -1.240046382 -21.085754395 -1.1533977985 -0.15944266319 -16.82699585 0.02508841455
          0.4087280333 -2.1485025883 -0.2068053484 -0.89131528139 -22.645212173 -0.98955279589
          17.686786652 -30.53354454 -0.30786550045 7.7540555 -26.744684219 0.51480621099
          14.647908211 -30.237270355 -0.28842002153 0.42434626818 -2.1286454201 -0.093484833837
          -1.6374509335 -18.340429306 1.350856781 -1.0831129551 -21.1426754 -0.56003373861
          0.80404925346 -6.5884432793 -0.073584072292 3.0701186657 -26.678611755 -0.63390046358
          1.4544695616 -9.1409597397 -0.22709821165 -0.30594435334 -21.922908783 0.89576911926
          2.4635834694 -12.109349251 1.4438420534 5.0260109901 -26.604507446 0.26517808437
          -0.80775606632 -22.614234924 -0.49201366305 2.4327456951 -12.02182579 0.74407213926
          3.0993475914 -26.632665634 -0.31149128079 11.592196465 -29.942720413 -0.54022222757
          17.687545776 -30.542499542 2.8371943017e-07 0.95439374447 -4.0199165344 -0.074668526649
          0 0 0 11.594423294 -29.966148376 -0.26878684759
          1.0554891825 -4.0335578918 -0.06008432433 14.648253441 -30.245649338 3.7946361431e-07
          0.14858166873 -24.539348602 -0.82462751865 -1.0560792685 -21.125494003 6.5882346689e-07
          -0.78836208582 -22.606082916 7.1329520779e-07 -0.14689186215 -19.213275909 -0.055339276791
          0.43661230803 -2.1442039013 7.615034292e-08 0.20155987144 -24.500377655 -0.4137313664
          3.1142425537 -26.628278732 7.0492393434e-07 -0.13682745397 -19.683494568 -0.027472276241
          2.3706274033 -11.987654686 4.2739065975e-07 1.1527104378 -24.138479233 0.75741446018
          11.595906258 -29.9727211 4.7907832368e-07 -0.16822950542 -16.324428558 0.04950735718
          1.0872192383 -4.0465483665 1.6218335475e-07 8.5527801514 -29.713403702 -0.51052224636
          17.686786652 -30.53354454 0.30786606669 0.21687269211 -24.489122391 7.441649359e-07
          1.6255819798 -5.8874740601 0.056839901954 1.2310558558 -8.9165182114 -0.17782463133
          -0.13482534885 -19.596323013 6.1209459545e-07 5.0162935257 -26.625728607 0.53268998861
          0 0 0 8.558391571 -29.725809097 -0.25425201654
          1.8327695131 -5.9844846725 0.10867407173 14.647908211 -30.237270355 0.28842076659
          -1.0831128359 -21.1426754 0.56003504992 -0.80775588751 -22.614234924 0.49201509356
          0.42434626818 -2.1286454201 0.093484982848 3.0993478298 -26.632667542 0.3114926815
          2.4327456951 -12.02182579 -0.7440713048 11.594423294 -29.966148376 0.26878780127
          8.560461998 -29.729810715 5.7950842347e-07 1.7416902781 -26.850873947 -0.71363741159
          1.9851694107 -15.29610157 1.55078578 1.8574621677 -5.9844632149 2.3704426155e-07
          1.0554891825 -4.0335578918 0.06008464843 1.8402094841 -15.213064194 0.75932139158
          0.20156008005 -24.500377655 0.41373285651 1.7818087339 -26.811660767 -0.35517191887
          -0.13682746887 -19.683494568 0.027473488823 5.7215547562 -29.551868439 -0.51762926579
          17.688547134 -30.505746841 0.61684429646 0 0 0
          2.782558918 -8.2359619141 0.82898342609 5.733335495 -29.539615631 -0.25767162442
          14.64893055 -30.209745407 0.57865172625 2.9107651711 -8.2097644806 0.49638697505