<?xml version="1.0"?>
<VTKFile type="UnstructuredGrid" version="0.1" byte_order="LittleEndian" header_type="UInt32" compressor="vtkZLibDataCompressor">
  <UnstructuredGrid>
    <Piece NumberOfPoints="6405" NumberOfCells="4800">
      <PointData>
        <DataArray type="Float32" Name="DISPLACEMENT" NumberOfComponents="3" ComponentName0="X-DISPLACEMENT" ComponentName1="Y-DISPLACEMENT" ComponentName2="Z-DISPLACEMENT" format="ascii" RangeMin="0" RangeMax="300.93029276">
          0 0 0 0 0 0
          2.5009744167 -1.5620113611 -1.1364372969 0 0 0
          1.5126994848 -0.93770045042 -0.82433313131 0 0 0
          2.2982017994 -1.7417161465 -0.44639149308 1.3178995848 -1.0845627785 -0.33607986569
          0 0 0 4.4622941017 -3.0524127483 -1.1373112202
          0 0 0 4.4111251831 -3.2509555817 -0.58422714472
          3.0287082195 -2.5825686455 -0.91447126865 0 0 0
          0 0 0 2.3084020615 -1.7950747013 1.9123123707e-07
          0.95799851418 -0.64367574453 -0.5698029995 1.3132383823 -1.1081410646 9.7965013879e-08
          2.9687824249 -2.7398171425 -0.46598613262 0.80951946974 -0.77600628138 -0.236093238
          4.3634767532 -3.3047394753 6.5265669491e-07 1.9571070671 -2.2294914722 -0.68804293871
          0 0 0 2.9308643341 -2.7889835835 4.5414441274e-07
          1.8854064941 -2.3652963638 -0.35244321823 0 0 0
          6.1697235107 -4.9751381874 -1.0343657732 0 0 0
          0.80300796032 -0.79312390089 -6.9157103155e-08 0 0 0
          0 0 0 2.2982020378 -1.7417161465 0.44639191031
          4.41969347 -4.54129076 -0.86567771435 6.1998095512 -5.1096310616 -0.52722668648
          0.34023073316 -0.50138789415 -0.30784612894 1.3178999424 -1.0845626593 0.33608010411
          4.4434919357 -4.6658964157 -0.44086644053 0.21189190447 -0.63644838333 -0.14676110446
          1.8554462194 -2.4051082134 1.7031157995e-07 4.4111256599 -3.2509553432 0.58422851562
          0 0 0 0 0 0
          0.88192087412 -2.0325138569 -0.4970254302 3.0131738186 -4.2192554474 -0.70663422346
          6.1847834587 -5.1576504707 1.3516595345e-06 2.9687833786 -2.7398169041 0.4659871161
          3.0062434673 -4.3321261406 -0.35865354538 0.80951994658 -0.77600604296 0.23609319329
          4.435356617 -4.7069077492 1.0360874967e-06 0.80575758219 -2.1509962082 -0.25398123264
          0.19520421326 -0.65354204178 -2.9614031405e-07 0 0 0
          7.689499855 -7.105755806 -0.89241218567 0 0 0
          5.721971035 -6.7139487267 -0.78196507692 1.8854074478 -2.365295887 0.35244363546
          7.7445001602 -7.193007946 -0.45257222652 2.500975132 -1.5620113611 1.1364378929
          0 0 0 0 0 0
          0.78349000216 -2.187899828 -1.9332971135e-07 2.9964537621 -4.3679761887 6.5007952799e-07
          -0.15754522383 -0.59283900261 -0.13768330216 5.7702198029 -6.8004126549 -0.3942912519
          1.5127003193 -0.9377001524 0.82433360815 1.6568007469 -3.9929490089 -0.55941545963
          0 0 0 6.1998105049 -5.1096305847 0.52722942829
          -0.25012329221 -0.71551066637 -0.076581165195 1.6351736784 -4.0961747169 -0.28123804927
          4.4434933662 -4.665895462 0.4408685565 0.21189263463 -0.6364480257 0.14676064253
          4.0644402504 -6.4004898071 -0.66938942671 -0.025701675564 -2.0090165138 -0.32664275169
          7.7463912964 -7.223927021 2.2480996904e-06 4.4622955322 -3.0524120331 1.1373127699
          0 0 0 0 0 0
          4.0838732719 -6.4837450981 -0.33764901757 3.02870965 -2.5825679302 0.91447246075
          5.778275013 -6.83020401 1.8189745106e-06 -0.077834233642 -2.1215646267 -0.1664827466
          0.95799934864 -0.64367520809 0.56980323792 -0.26153510809 -0.75119352341 -6.9430916483e-07
          1.6258256435 -4.1268892288 1.7757635362e-07 3.0062446594 -4.3321256638 0.35865488648
          0.80575895309 -2.1509954929 0.25398093462 4.085752964 -6.5108456612 1.3263812662e-06
          1.9571088552 -2.2294902802 0.68804353476 -0.086498893797 -2.1584830284 -7.1497134968e-07
          2.4972782135 -6.1659107208 -0.55770593882 7.7445015907 -7.1930069923 0.45257675648
          6.1697258949 -4.9751372337 1.0343686342 0 0 0
          9.0334568024 -9.3654508591 -0.77464145422 0 0 0
          0 0 0 0.35718163848 -3.87606287 -0.38909521699
          2.4945716858 -6.2446308136 -0.28109711409 9.0861701965 -9.4186630249 -0.38987228274
          6.9250307083 -9.0116462708 -0.70562714338 5.7702217102 -6.8004117012 0.39429494739
          -0.86732912064 -0.78732162714 0.013594186865 0 0 0
          4.419696331 -4.5412893295 0.86567997932 0.34023186564 -0.50138711929 0.30784600973
          0.3272266686 -3.9778122902 -0.20276908576 -0.25012227893 -0.71551012993 0.076579943299
          -0.98418563604 -0.89096933603 -0.024407943711 1.6351754665 -4.0961737633 0.2812384069
          6.9720602036 -9.0681715012 -0.35315746069 4.0838751793 -6.4837441444 0.33765172958
          2.493629694 -6.2685461044 7.477290751e-07 9.0947647095 -9.4382305145 3.3224062008e-06
          -0.97945874929 -2.162217617 -0.24581514299 -0.077832691371 -2.1215639114 0.16648136079
          0 0 0 5.078625679 -8.7200279236 -0.63170492649
          0.88192307949 -2.0325124264 0.4970253408 3.0131764412 -4.2192540169 0.70663577318
          0.32063251734 -4.0057358742 -4.0604209062e-07 6.9843559265 -9.0878744125 2.7866981327e-06
          -1.0014314651 -0.9286659956 -1.4008644484e-06 -1.0473328829 -2.2397723198 -0.11247348785
          5.1024022102 -8.7756681442 -0.31651473045 7.6895031929 -7.1057543755 0.89241695404
          0 0 0 0.88090926409 -6.0051045418 -0.44183015823
          5.7219743729 -6.7139468193 0.78196895123 -1.0497405529 -2.2787518501 -1.5778673514e-06
          0.85562872887 -6.0789084435 -0.2276404947 5.1096572876 -8.7943887711 2.1838429802e-06
          -0.15754391253 -0.59283781052 0.1376824677 2.4945735931 -6.2446293831 0.281098634
          3.3356425762 -8.4986953735 -0.56120324135 9.0861721039 -9.4186620712 0.38987895846
          -0.76466828585 -3.9735834599 -0.34962582588 1.6568037271 -3.9929471016 0.55941593647
          0 0 0 0.32722839713 -3.9778110981 0.2027682662
          3.3376431465 -8.5483064651 -0.28220778704 -0.98418420553 -0.89096868038 0.024405291304
          -0.81421077251 -4.0321393013 -0.16246010363 6.9720621109 -9.0681705475 0.35316309333
          4.0644435883 -6.4004874229 0.66939222813 -0.025699233636 -2.0090148449 0.3266415
          10.225269318 -11.691255569 -0.68666183949 0 0 0
          0.85354983807 -6.1010694504 6.6507915619e-08 8.0255870819 -11.375014305 -0.64584928751
          10.267430305 -11.723324776 -0.34455913305 0 0 0
          -1.8261458874 -1.00598526 0.022248568013 8.0639925003 -11.410713196 -0.3220333755
          3.341435194 -8.5658006668 1.5047270381e-06 -1.9805501699 -1.0430554152 -0.0042402786203
          -1.0473310947 -2.2397713661 0.11247039586 -0.814029634 -4.0668778419 -1.3149787037e-06
          5.1024041176 -8.7756671906 0.316519171 6.0365109444 -11.118021965 -0.60152250528
          -1.9060919285 -2.4149546623 -0.2898812294 10.276953697 -11.735617638 4.5642150326e-06
          0 0 0 -1.9928385019 -2.4200520515 -0.12210927159
          6.0603780746 -11.152463913 -0.30002903938 8.0755119324 -11.423679352 3.9314149944e-06
          -1.9768460989 -1.0914976597 -2.6056729894e-06 2.4972815514 -6.1659083366 0.55770754814
          1.5462272167 -8.3257980347 -0.51316219568 9.0334606171 -9.3654489517 0.77464830875
          0 0 0 -0.3811173737 -6.0305070877 -0.43844243884
          0.85563069582 -6.0789074898 0.22764067352 0.35718467832 -3.8760607243 0.38909447193
          6.925034523 -9.0116443634 0.70563292503 -0.86732751131 -0.787319839 -0.013596493751
          -0.41429701447 -6.06457901 -0.2103253603 1.5296100378 -8.3641347885 -0.25621515512
          3.3376452923 -8.5483055115 0.28221085668 -0.81420868635 -4.0321378708 0.16245754063
          6.0685482025 -11.164916992 3.2361288049e-06 -1.9930624962 -2.4495763779 -2.8488627777e-06
          4.1737012863 -10.93127346 -0.56535995007 -1.6776359081 -4.2252850533 -0.42728084326
          -0.97945588827 -2.1622154713 0.24581217766 10.267432213 -11.723322868 0.34456831217
          5.0786294937 -8.7200260162 0.63170951605 0 0 0
          1.5314568281 -8.3797941208 7.5267035982e-07 -0.40903845429 -6.0911450386 -8.5463415189e-07
          4.1842160225 -10.957975388 -0.2825807333 8.0639944077 -11.410712242 0.32204127312
          -1.7373194695 -4.2107400894 -0.19222994149 -1.9805483818 -1.0430546999 0.0042352089658
          0.88091289997 -6.0051021576 0.44183051586 4.1896600723 -10.970075607 2.4811495223e-06
          6.0603804588 -11.152462959 0.30003553629 -1.992836237 -2.4200510979 0.12210369855
          -1.7321751118 -4.2346496582 -2.5668082344e-06 11.299276352 -14.038251877 -0.62746417522
          0 0 0 11.329637527 -14.060044289 -0.31446582079
          3.3356466293 -8.4986925125 0.5612065196 9.0367240906 -13.749312401 -0.60011088848
          -0.76466470957 -3.9735810757 0.34962338209 0.15375977755 -8.2788896561 -0.51036989689
          -0.61026722193 -1.4497559071 0.3270868957 -0.41429460049 -6.0645775795 0.21032376587
          1.5296126604 -8.3641328812 0.25621676445 0 0 0
          9.0658636093 -13.774555206 -0.2987754941 0.14594197273 -8.2963132858 -0.25106352568
          -0.59530931711 -1.5128413439 0.10736998171 2.3462882042 -10.774849892 -0.55706381798
          -1.3233311176 -6.2488303185 -0.52780455351 10.225273132 -11.691253662 0.68667113781
          0 0 0 8.0255918503 -11.375011444 0.64585727453
          11.338259697 -14.068684578 5.9599037741e-06 -1.3529595137 -6.2230787277 -0.24746115506
          2.349981308 -10.790588379 -0.27346158028 -1.8261438608 -1.0059827566 -0.022253258154
          6.9279270172 -13.519886971 -0.56885665655 -1.5169626474 -2.7191226482 0.15496528149
          0 0 0 4.1842184067 -10.957974434 0.28258576989
          -1.7373169661 -4.2107386589 0.1922249496 9.0750255585 -13.783790588 5.235165645e-06
          0.15530763566 -8.3112306595 -1.3904741536e-07 6.9521784782 -13.543739319 -0.28308355808
          -1.6194173098 -2.8184547424 0.011759351939 -0.61373615265 -1.527799964 -1.5739805121e-06
          6.0365152359 -11.118019104 0.601529181 -1.9060884714 -2.4149518013 0.28987583518
          2.3547682762 -10.799746513 1.6778400322e-06 -1.3407937288 -6.2408514023 -2.0459090138e-06
          1.5462318659 -8.3257961273 0.51316404343 6.9594593048 -13.552109718 4.4575913307e-06
          -1.5599412918 -2.8057010174 -2.6849622827e-06 -0.38111317158 -6.0305042267 0.43844103813
          11.329639435 -14.060043335 0.31447777152 4.9688839912 -13.369617462 -0.54349648952
          0 0 0 -2.2832710743 -4.544716835 -0.42424067855
          4.9890441895 -13.385770798 -0.27119472623 9.0658655167 -13.774553299 0.29878598452
          -0.59530895948 -1.5128407478 -0.10737300664 0.14594483376 -8.2963123322 0.25106334686
          -2.3534598351 -4.5380973816 -0.22473597527 4.1737060547 -10.931270599 0.56536513567
          0.78954303265 -10.689945221 -0.53254115582 2.3499844074 -10.790587425 0.27346497774
          -1.677631855 -4.2252821922 0.42727598548 -1.3529567719 -6.2230772972 0.24745719135
          -0.87672042847 -8.461558342 -0.58274394274 0.79876160622 -10.701237679 -0.26752594113
          4.9941658974 -13.392947197 3.6377914512e-06 6.9521808624 -13.543737411 0.28309252858
          -1.6194167137 -2.8184540272 -0.011764670722 -0.87956023216 -8.4401159286 -0.27814662457
          -2.3066484928 -4.5374264717 -3.6619228467e-06 12.301161766 -16.385297775 -0.59456020594
          0 0 0 -0.44199749827 -1.6487119198 0.2661216259
          0.80844569206 -10.706533432 8.0525398971e-07 3.1422846317 -13.262022972 -0.53793656826
          9.9836301804 -16.109210968 -0.56687992811 11.29928112 -14.038249016 0.62747627497
          0 0 0 0 0 0
          -0.86298418045 -8.4533061981 -1.2588635627e-06 -2.0884053707 -6.5922927856 -0.62977039814
          12.320178986 -16.406225204 -0.29739362001 3.1617510319 -13.269317627 -0.2663988173
          10.003426552 -16.133306503 -0.28191408515 9.0367288589 -13.74930954 0.60012149811
          -0.42328178883 -1.6601338387 0.11714588106 0.15376481414 -8.278886795 0.51036983728
          -0.61026757956 -1.449755311 -0.3270893991 -2.1162333488 -6.5319314003 -0.30929026008
          4.9890470505 -13.385769844 0.2712020576 -2.3534576893 -4.5380959511 0.2247287631
          7.7581858635 -15.892823219 -0.53309935331 2.3462934494 -10.774847031 0.55706739426
          -1.3233263493 -6.2488269806 0.52780079842 0 0 0
          -0.86302995682 -3.1501655579 0.18729116023 12.3272295 -16.414045334 7.485419701e-06
          -0.42786565423 -1.67976439 -1.0229712188e-06 3.1680707932 -13.274252892 2.7855176086e-06
          7.7802047729 -15.915491104 -0.26462289691 6.9279322624 -13.519884109 0.56886571646
          10.009954453 -16.141395569 6.6694533416e-06 -1.5169625282 -2.719121933 -0.15496960282
          -2.102868557 -6.5311570168 -3.3319151953e-06 -0.90565294027 -3.2046473026 0.10325066745
          0.79876470566 -10.701235771 0.26752758026 -0.87955737114 -8.440114975 0.27814418077
          -0.36874070764 -10.838187218 -0.598054111 7.7860803604 -15.921936035 5.8117097979e-06
          -0.9117038846 -3.2281105518 -1.8532883814e-06 -0.3575707078 -10.819314003 -0.28778418899
          5.6792283058 -15.77331543 -0.50205588341 0 0 0
          -1.2374821901 -4.6966714859 0.081837944686 12.320181847 -16.406225204 0.29740861058
          -0.42328155041 -1.6601336002 -0.11714772135 3.1617541313 -13.269316673 0.26640442014
          5.7023105621 -15.786396027 -0.25033068657 4.9688892365 -13.369614601 0.54350394011
          10.003429413 -16.133304596 0.28192743659 1.4439017773 -13.192218781 -0.53144836426
          -1.6899898052 -8.8179607391 -0.68863129616 -2.2832679749 -4.544713974 0.42423418164
          -1.3073203564 -4.8218007088 0.011614168063 -2.1162307262 -6.5319299698 0.30928367376
          1.4570150375 -13.191195488 -0.26663389802 -1.6920458078 -8.7613306046 -0.3344181478
          -0.33969715238 -10.829844475 -3.1124383781e-07 0.78954863548 -10.68994236 0.53254282475
          7.780207634 -15.915489197 0.26463454962 -0.87671524286 -8.4615545273 0.58274161816
          5.7067680359 -15.790446281 4.916569651e-06 -0.90565234423 -3.2046468258 -0.10325419903
          -1.3255717754 -4.8305149078 -2.3639736355e-06 1.4659712315 -13.193252563 1.8569038502e-06
          -1.6750438213 -8.7625198364 -2.5359688607e-06 -1.5875667334 -6.521774292 -0.0078095486388
          3.8115363121 -15.734534264 -0.4964286685 12.301166534 -16.385295868 0.59457528591
          0 0 0 -0.35756766796 -10.819312096 0.28778359294
          -0.44199776649 -1.6487123966 -0.26612314582 -1.6699010134 -6.6819462776 -0.074212178588
          3.1422903538 -13.262020111 0.5379421711 9.9836359024 -16.109209061 0.56689333916
          3.8344631195 -15.733510017 -0.24837364256 13.274904251 -18.743061066 -0.58332616091
          0 0 0 -2.0884006023 -6.5922889709 0.62976384163
          13.283641815 -18.769130707 -0.29108998179 -0.29168736935 -1.7012267113 0.20820248127
          10.895699501 -18.46745491 -0.54696846008 5.7023134232 -15.786394119 0.25034055114
          0 0 0 -1.3073195219 -4.8217997551 -0.011618814431
          10.906033516 -18.49618721 -0.27184796333 -0.25346314907 -1.693202734 0.090589031577
          1.457018137 -13.191194534 0.26663762331 -1.6920429468 -8.7613286972 0.33441314101
          7.7581915855 -15.892820358 0.53311109543 -1.6730517149 -6.6846847534 -2.4547932753e-06
          3.8402619362 -15.736676216 3.9815690798e-06 -0.86302959919 -3.1501657963 -0.18729420006
          0.17829312384 -13.307986259 -0.59685176611 -0.54277735949 -3.2602679729 0.22403933108
          8.5440416336 -18.246528625 -0.50262629986 -1.234238863 -11.187269211 -0.70840185881
          13.288575172 -18.778011322 9.1084984888e-06 0 0 0
          0.1997384429 -13.284229279 -0.29053866863 10.910042763 -18.504970551 8.2017832028e-06
          -0.25831967592 -1.7029362917 -4.0747525532e-07 8.5596637726 -18.273426056 -0.24930071831
          -0.5466145277 -3.2832496166 0.11863696575 -1.2165031433 -11.133133888 -0.3427656889
          -0.36873519421 -10.838184357 0.59805357456 0.21640485525 -13.289571762 7.1865963491e-07
          -1.9995521307 -8.9469146729 -0.28388538957 -1.6699000597 -6.6819458008 0.074207313359
          2.093026638 -15.722524643 -0.53162008524 8.5640954971 -18.279933929 7.267870842e-06
          5.679233551 -15.773311615 0.50206583738 3.8344662189 -15.73350811 0.24838162959
          -1.1970216036 -11.135040283 -1.601602321e-06 -0.54333597422 -3.298173666 -7.0702100174e-07
          -1.2374812365 -4.6966714859 -0.081841744483 13.283644676 -18.769128799 0.29110822082
          6.297308445 -18.134912491 -0.46156474948 -2.0719687939 -9.061750412 -0.23142597079
          -0.8073065877 -4.8605499268 0.19584488869 2.1119003296 -15.706612587 -0.26110863686
          1.4439076185 -13.192215919 0.53145205975 -1.6899846792 -8.8179569244 0.68862628937
          0 0 0 -0.83349812031 -4.9309024811 0.10583276302
          10.906036377 -18.496185303 0.27186438441 -0.25346297026 -1.6932028532 -0.090589761734
          6.3164610863 -18.149438858 -0.23014578223 -1.9856876135 -9.0042686462 -2.7152084385e-06
          2.1200799942 -15.707184792 2.9597435969e-06 0.19974158704 -13.284227371 0.29054012895
          6.3200740814 -18.152719498 6.3017896537e-06 -0.83835792542 -4.9600524902 -8.8370342155e-07
          8.5596666336 -18.273424149 0.24931527674 -0.54661417007 -3.2832496166 -0.11863829941
          -1.2165001631 -11.133131981 0.34276252985 -1.5875653028 -6.5217738152 0.0078053823672
          3.8115422726 -15.734531403 0.49643671513 4.3451676369 -18.156341553 -0.45712375641
          13.274909973 -18.743057251 0.58334439993 0 0 0
          -1.0837665796 -6.7134327888 0.15534639359 -0.29168733954 -1.7012275457 -0.20820304751
          10.895705223 -18.467453003 0.54698497057 -2.0719676018 -9.0617494583 0.23142071068
          2.1119036674 -15.706611633 0.26111459732 4.3679008484 -18.150709152 -0.22959654033
          -0.75612974167 -13.628157616 -0.69596320391 -1.1133230925 -6.8274893761 0.081094309688
          -0.83349770308 -4.9309024811 -0.10583440214 6.3164639473 -18.149436951 0.23015840352
          -0.72261047363 -13.580460548 -0.3375133574 0.74217605591 -15.808385849 -0.57942771912
          -2.0035898685 -11.603855133 -0.77066451311 14.250180244 -21.140956879 -0.58725315332
          0 0 0 11.798014641 -20.860588074 -0.54100078344
          0.17829890549 -13.307982445 0.59685325623 -0.54277706146 -3.260269165 -0.22404037416
          8.5440473557 -18.246524811 0.502640903 -1.9816635847 -11.55161953 -0.39370244741
          0.77055633068 -15.782740593 -0.28481048346 -1.2342334986 -11.187265396 0.70839869976
          14.250702858 -21.173997879 -0.29270556569 0 0 0
          -1.1207276583 -6.8609437943 -9.5958068869e-07 4.3734173775 -18.153623581 5.2788850553e-06
          -0.18609909713 -1.6740968227 0.15647524595 11.799910545 -20.895463943 -0.26907908916
          -0.14364811778 -1.6581740379 0.067131720483 -0.70395350456 -13.580412865 -5.7060594827e-07
          9.3204469681 -20.622741699 -0.48796141148 -1.9639775753 -11.537169456 -2.8652075343e-06
          0.78356790543 -15.780433655 1.8388566332e-06 14.253303528 -21.184804916 1.0790600754e-05
          0 0 0 -0.31635037065 -3.236317873 0.20256058872
          9.3280668259 -20.656032562 -0.24201582372 11.801673889 -20.906059265 9.7951306088e-06
          -1.9995502234 -8.9469137192 0.2838819921 2.0930328369 -15.722520828 0.53162616491
          -0.14223699272 -1.6620378494 2.1791282734e-07 -0.28973302245 -3.235669136 0.10692797601
          6.297314167 -18.134908676 0.46157744527 -0.80730605125 -4.8605513573 -0.19584619999
          -1.2742015123 -8.8834457397 0.13513350487 2.709861517 -18.218198776 -0.50597625971
          -1.1133224964 -6.8274888992 -0.081096075475 4.3679041862 -18.150707245 0.22960713506
          -1.3073728085 -9.0417776108 0.047193225473 2.7360577583 -18.198692322 -0.24839939177
          -0.7226074338 -13.580458641 0.33751225471 9.3316192627 -20.664422989 8.7907892521e-06
          -0.28139540553 -3.2430973053 5.0315838962e-07 6.8759150505 -20.471078873 -0.43628916144
          -1.9816607237 -11.551617622 0.39369669557 0.77055954933 -15.782739639 0.28481417894
          14.250704765 -21.173995972 0.29272714257 0 0 0
          -0.42754098773 -4.8476176262 0.22816208005 6.8886842728 -20.49197197 -0.21716986597
          11.799913406 -20.895462036 0.26909869909 -0.41263797879 -4.8769946098 0.12116197497
          -1.3412638903 -9.0726222992 -1.0216507462e-06 2.7468588352 -18.199607849 4.2182441575e-06
          -0.14364802837 -1.6581741571 -0.067131280899 9.3280696869 -20.656030655 0.24203340709
          6.8922829628 -20.495967865 7.7786589827e-06 -0.40859207511 -4.8935379982 7.9347830706e-07
          4.3451738358 -18.156337738 0.45713445544 -0.27425763011 -16.080423355 -0.65220755339
          -0.28973284364 -3.2356693745 -0.10692696273 -1.0837657452 -6.7134342194 -0.15534773469
          -1.5697934628 -14.039981842 -0.76171541214 -0.2357454896 -16.045783997 -0.3163497746
          -0.75612407923 -13.628152847 0.69596207142 -1.5265743732 -13.99332428 -0.37973874807
          -1.307371974 -9.0417766571 -0.047195162624 2.7360613346 -18.198690414 0.24840785563
          0.74218207598 -15.808382034 0.5794314146 -2.0035846233 -11.603851318 0.77065885067
          -0.51470476389 -6.6596479416 0.25510063767 4.7678422928 -20.481424332 -0.42083090544
          14.250185966 -21.140953064 0.58727478981 0 0 0
          11.798020363 -20.860584259 0.54102039337 -0.50590991974 -6.7234344482 0.13394717872
          -0.22222056985 -16.042783737 5.7231733308e-07 -1.4568088055 -11.209884644 0.1784812361
          1.3084886074 -18.291479111 -0.54374146461 4.7889151573 -20.474630356 -0.2120885402
          -0.1860987395 -1.6740976572 -0.15647473931 -1.5120871067 -13.982484818 -1.9150932076e-06
          6.8886876106 -20.491970062 0.21718542278 -0.41263777018 -4.8769946098 -0.12116040289
          1.3339679241 -18.266836166 -0.27019754052 -1.5665115118 -11.443869591 -0.037725090981
          9.3204526901 -20.622737885 0.48797899485 -0.50772476196 -6.7521739006 1.0315757208e-06
          4.7941560745 -20.476055145 6.7236910581e-06 -0.3163498342 -3.2363193035 -0.20255956054
          1.3448410034 -18.262493134 3.0953599435e-06 15.241208076 -23.606508255 -0.59940648079
          0 0 0 -1.5475925207 -11.450850487 -1.2114601304e-06
          15.236491203 -23.645641327 -0.29894971848 0 0 0
          -0.23574241996 -16.045782089 0.31635090709 12.705636978 -23.320102692 -0.54590755701
          -1.2742000818 -8.8834466934 -0.1351351738 2.7098679543 -18.218196869 0.50598478317
          -0.07620190829 -1.5890969038 0.10401860625 -1.526571393 -13.993322372 0.37973493338
          12.701907158 -23.360176086 -0.27204957604 -0.034339152277 -1.5679645538 0.0431602709
          6.8759207726 -20.471075058 0.43630471826 15.237078667 -23.658472061 1.2489788787e-05
          -0.50590968132 -6.7234344482 -0.13394513726 10.12403965 -23.064491272 -0.48945614696
          -0.069295994937 -3.0782549381 0.17102760077 4.7889184952 -20.474628448 0.21210199594
          0 0 0 3.2204024792 -20.57907486 -0.47312247753
          -0.58320295811 -8.7302818298 0.28880622983 -0.42754039168 -4.8476195335 -0.22816054523
          -0.023420440033 -3.0670602322 0.086832784116 10.125265121 -23.1040802 -0.24274294078
          12.701932907 -23.372964859 1.140599943e-05 1.333971262 -18.266834259 0.2702037096
          -0.58725529909 -8.8366384506 0.14917738736 3.2458674908 -20.554801941 -0.23372875154
          -1.5665105581 -11.443867683 0.037722662091 -0.029681541026 -1.5693507195 8.5061367372e-07
          -1.114972353 -16.457695007 -0.70510441065 10.127513885 -23.115505219 1.0328998542e-05
          -0.27425187826 -16.08041954 0.65220868587 -0.009852046147 -3.0686528683 1.7172220623e-06
          -0.5873671174 -8.8811903 1.1759128711e-06 -1.0723764896 -16.42383194 -0.34666994214
          3.2564046383 -20.552873611 5.5995374169e-06 -1.5697879791 -14.039978027 0.76171153784
          15.236493111 -23.64563942 0.29897469282 7.523935318 -22.854364395 -0.43082278967
          -2.0514006615 -14.311968803 -0.51438748837 0 0 0
          -0.014322397299 -4.619228363 0.23337017 0.20742882788 -18.481433868 -0.58886629343
          0.028134550899 -4.6310977936 0.12152824551 7.5320968628 -22.886180878 -0.21270962059
          12.701910019 -23.360174179 0.27207240462 -2.07771945 -14.383606911 -0.31281736493
          0.23740933836 -18.456260681 -0.29171553254 -0.034339163452 -1.5679645538 -0.043158661574
          -0.51470422745 -6.6596493721 -0.25509870052 4.7678489685 -20.481420517 0.42084434628
          -1.0598338842 -16.4153862 -8.3579737975e-07 -1.4568076134 -11.209884644 -0.17848291993
          1.3084948063 -18.291473389 0.54374760389 7.5364942551 -22.893396378 9.2642048912e-06
          10.125267982 -23.104078293 0.24276359379 -2.0046198368 -14.330043793 -2.4869686968e-06
          -0.023420440033 -3.0670599937 -0.086829438806 0.039583809674 -4.6394815445 2.483518756e-06
          -0.58725500107 -8.8366384506 -0.14917507768 3.2458708286 -20.554800034 0.23373992741
          0.24813498557 -18.451862335 1.8113810256e-06 1.852027297 -20.655021667 -0.52045208216
          -0.65512382984 -11.141951561 0.27127832174 1.873850584 -20.627414703 -0.25741860271
          -0.65271663666 -11.287272453 0.14860582352 15.241212845 -23.606502533 0.59943145514
          0 0 0 -1.0723735094 -16.423828125 0.34666827321
          0.089438550174 -6.3480057716 0.29039314389 5.1746435165 -22.781494141 -0.39392289519
          0.1272713989 -6.3888039589 0.152799353 12.7056427 -23.32009697 0.54593032598
          -0.076201222837 -1.5890974998 -0.10401704907 5.1946125031 -22.779958725 -0.19715940952
          7.5320997238 -22.88617897 0.21272812784 -2.0777175426 -14.383605003 0.31281253695
          0.028134508058 -4.6310973167 -0.12152341753 0.2374124229 -18.456258774 0.29171910882
          1.8826277256 -20.620462418 4.3771592573e-06 -0.66852861643 -11.341900826 1.1884288824e-06
          10.124045372 -23.06448555 0.48947677016 -0.069295242429 -3.0782558918 -0.17102453113
          3.2204089165 -20.579071045 0.4731335938 0.13606154919 -6.4054560661 3.0519192933e-06
          -0.58320242167 -8.7302827835 -0.28880396485 5.1990261078 -22.781723022 8.1969510575e-06
          16.252813339 -26.156188965 -0.6143450141 0 0 0
          -1.1149666309 -16.457689285 0.70510274172 1.8738539219 -20.627412796 0.25742730498
          0 0 0 13.627898216 -25.8627491 -0.55578166246
          -1.7971711159 -16.899665833 -0.76303082705 -0.65271621943 -11.2872715 -0.14860349894
          0.068940065801 -1.4207932949 0.042885255069 -0.6694816947 -18.797746658 -0.64145046473
          16.245853424 -26.200000763 -0.30688166618 7.52394104 -22.85436058 0.43084126711
          13.621734619 -25.907018661 -0.27761301398 0.1084760651 -1.3996691704 0.016911614686
          -2.051397562 -14.311965942 0.51438456774 -1.7594884634 -16.860897064 -0.37693530321
          -0.014321842231 -4.6192293167 -0.23336578906 3.6830313206 -22.872032166 -0.44667619467
          0.12727124989 -6.3888034821 -0.15279345214 0.20743468404 -18.481430054 0.5888698101
          0.23830577731 -8.3932914734 0.34770542383 5.1946158409 -22.779956818 0.1971757859
          -0.63572460413 -18.769639969 -0.31577971578 0.26961609721 -8.4538536072 0.18394158781
          3.7091886997 -22.847356796 -0.2209956497 10.957322121 -25.592811584 -0.49657616019
          16.245191574 -26.214578629 1.4165763787e-05 0.26751843095 -2.7602412701 0.13881959021
          0 0 0 10.955247879 -25.638116837 -0.2469099164
          0.3258421123 -2.7473170757 0.064004726708 13.620663643 -25.921766281 1.2993099517e-05
          0.68093001842 -20.773889542 -0.54860538244 -1.7424554825 -16.850940704 -2.3948850867e-06
          -0.62365448475 -18.76525116 3.055504294e-07 -0.62207847834 -13.687788963 0.40735566616
          0.11393374205 -1.4032894373 1.5038378933e-06 0.70328420401 -20.750322342 -0.2757139504
          3.7210998535 -22.846197128 6.9887851168e-06 -0.65368968248 -13.913263321 0.11894011497
          0.27444982529 -8.4809617996 3.4581387354e-06 1.8520336151 -20.655017853 0.52046072483
          10.956005096 -25.652240753 1.1839793842e-05 -0.65512311459 -11.141952515 -0.27127608657
          0.33638620377 -2.7463629246 2.8570955237e-06 8.2592735291 -25.340126038 -0.42937389016
          16.245855331 -26.199998856 0.30690997839 0.71138328314 -20.74247551 3.0099656669e-06
          0.5102865696 -4.2068076134 0.24115882814 0.089438788593 -6.3480067253 -0.29038777947
          -0.66003829241 -13.953565598 1.3189001038e-06 5.1746497154 -22.781490326 0.39393922687
          0 0 0 8.2646245956 -25.384302139 -0.21224273741
          0.57417672873 -4.2124962807 0.11943235993 13.62173748 -25.907016754 0.27763900161
          -1.759485364 -16.860895157 0.37693053484 -0.63572150469 -18.769638062 0.31578034163
          0.10847592354 -1.399668932 -0.016908850521 3.709192276 -22.847354889 0.22100961208
          0.26961576939 -8.4538526535 -0.18393486738 10.95525074 -25.638113022 0.24693357944
          8.2683582306 -25.395353317 1.0712593394e-05 2.3951432705 -22.937255859 -0.4964184463
          0.41866704822 -10.623497963 0.39681258798 0.59342461824 -4.2204313278 4.0136383177e-06
          0.32584184408 -2.7473165989 -0.063999205828 0.44379076362 -10.724139214 0.22102178633
          0.70328736305 -20.750318527 0.27571994066 2.4146502018 -22.911096573 -0.24616128206
          -0.65368938446 -13.913261414 -0.11893761903 5.6519708633 -25.127700806 -0.35246986151
          16.252819061 -26.15618515 0.6143732667 0 0 0
          0.73527926207 -5.8145794868 0.34843397141 5.6732873917 -25.141136169 -0.17956086993
          13.627902985 -25.862743378 0.55580759048 0.78499919176 -5.8449926376 0.18063938618