<?xml version="1.0"?>
<VTKFile type="UnstructuredGrid" version="0.1" byte_order="LittleEndian" header_type="UInt32" compressor="vtkZLibDataCompressor">
  <UnstructuredGrid>
    <Piece NumberOfPoints="6405" NumberOfCells="4800">
      <PointData>
        <DataArray type="Float32" Name="DISPLACEMENT" NumberOfComponents="3" ComponentName0="X-DISPLACEMENT" ComponentName1="Y-DISPLACEMENT" ComponentName2="Z-DISPLACEMENT" format="ascii" RangeMin="0" RangeMax="324.18660217">
          0 0 0 0 0 0
          2.5893034935 -1.5562121868 -1.1824067831 0 0 0
          1.5529052019 -0.90038067102 -0.84013515711 0 0 0
          2.3779933453 -1.7539502382 -0.46504071355 1.3533192873 -1.0659631491 -0.34226533771
          0 0 0 4.6585450172 -3.1066870689 -1.1951893568
          0 0 0 4.6014719009 -3.3282468319 -0.61173158884
          3.1184976101 -2.6091074944 -0.93797361851 0 0 0
          0 0 0 2.3892683983 -1.8121088743 -2.1619067425e-08
          0.92428046465 -0.59098094702 -0.54973018169 1.3497135639 -1.0931793451 9.6077954481e-09
          3.0527541637 -2.7879853249 -0.47757679224 0.77822184563 -0.74505913258 -0.22810296714
          4.5519332886 -3.3879234791 5.0277972008e-08 1.9071080685 -2.2366628647 -0.67629230022
          0 0 0 3.0138456821 -2.8428761959 9.8560732908e-08
          1.8288571835 -2.3945288658 -0.34699034691 0 0 0
          6.4712133408 -5.1722726822 -1.0939085484 0 0 0
          0.77430820465 -0.76615291834 2.0870707829e-08 0 0 0
          0 0 0 2.3779935837 -1.7539503574 0.46504071355
          4.5630936623 -4.7157754898 -0.89857405424 6.4978423119 -5.3259501457 -0.55649483204
          0.23102383316 -0.46265351772 -0.24430979788 1.3533192873 -1.0659631491 0.34226536751
          4.5819716454 -4.8579721451 -0.45739558339 0.10648268461 -0.62559658289 -0.12217511237
          1.8004184961 -2.4403681755 1.2541217131e-07 4.6014719009 -3.3282468319 0.61173176765
          0 0 0 0 0 0
          0.66276907921 -2.0362071991 -0.44724434614 2.9757816792 -4.3803272247 -0.71796756983
          6.4806923866 -5.3797392845 1.9350679281e-07 3.0527544022 -2.7879853249 0.47757703066
          2.9602968693 -4.5080165863 -0.36419194937 0.77822196484 -0.74505913258 0.22810302675
          4.5726737976 -4.9043850899 2.5358534117e-07 0.57492613792 -2.1782240868 -0.23271948099
          0.08982346952 -0.64911800623 2.2668224631e-08 0 0 0
          8.0844135284 -7.4931159019 -0.94945842028 0 0 0
          5.9209518433 -7.0824427605 -0.82090437412 1.8288575411 -2.3945291042 0.34699064493
          8.1382427216 -7.5948534012 -0.48135200143 2.5893037319 -1.556212306 1.1824069023
          0 0 0 0 0 0
          0.55524325371 -2.2226605415 1.3808480048e-07 2.9509458542 -4.5492563248 2.9413612879e-07
          -0.3362082541 -0.59204220772 -0.040384218097 5.9672517776 -7.1819815636 -0.41395145655
          1.5529054403 -0.90038079023 0.84013521671 1.3952386379 -4.1461200714 -0.5605147481
          0 0 0 6.4978427887 -5.3259501457 0.55649524927
          -0.4397931993 -0.74187725782 -0.03596432507 1.3618534803 -4.2588663101 -0.28105604649
          4.5819721222 -4.8579726219 0.45739611983 0.10648282617 -0.62559658289 0.12217517942
          4.0610823631 -6.760802269 -0.69635421038 -0.3277258575 -2.0501332283 -0.28931561112
          8.1387195587 -7.6306004524 4.0016217895e-07 4.6585454941 -3.1066873074 1.195189476
          0 0 0 0 0 0
          4.0777831078 -6.8549003601 -0.35064098239 3.1184980869 -2.6091074944 0.93797385693
          5.974562645 -7.2164974213 4.6695663514e-07 -0.39937499166 -2.17166996 -0.14427605271
          0.92428070307 -0.59098100662 0.54973036051 -0.45744377375 -0.78774124384 8.8326421732e-09
          1.3529194593 -4.2952318192 3.2243968917e-07 2.9602973461 -4.5080165863 0.36419257522
          0.57492649555 -2.1782240868 0.23271979392 4.0793552399 -6.8870606422 5.1792591194e-07
          1.9071085453 -2.2366628647 0.67629259825 -0.40453016758 -2.2189660072 1.3901498619e-07
          2.2760181427 -6.5165176392 -0.57985198498 8.1382436752 -7.5948534012 0.48135280609
          6.4712142944 -5.1722726822 1.0939090252 0 0 0
          9.5154466629 -9.9665384293 -0.82873272896 0 0 0
          0 0 0 0.017737405375 -4.0470051765 -0.39628624916
          2.2744288445 -6.604701519 -0.28910678625 9.5687770844 -10.031746864 -0.41715148091
          7.1834068298 -9.5907907486 -0.74427163601 5.9672522545 -7.1819815636 0.41395241022
          -1.1586201191 -0.82269322872 0.13328188658 0 0 0
          4.5630946159 -4.7157754898 0.89857465029 0.23102413118 -0.46265348792 0.2443099618
          -0.012873450294 -4.1528153419 -0.20264910161 -0.43979299068 -0.74187725782 0.035964369774
          -1.30478549 -0.94506502151 0.019618816674 1.3618539572 -4.2588663101 0.28105670214
          7.2311077118 -9.658782959 -0.37260648608 4.0777835846 -6.8549003601 0.35064202547
          2.2731451988 -6.6328396797 5.5875494809e-07 9.5768404007 -10.055327415 6.6269558374e-07
          -1.4210160971 -2.2239670753 -0.21225474775 -0.39937460423 -2.17166996 0.14427635074
          0 0 0 5.1187272072 -9.2828702927 -0.65568178892
          0.66276967525 -2.0362071991 0.44724473357 2.9757826328 -4.3803272247 0.71796822548
          -0.016640296206 -4.1859369278 3.4494510714e-07 7.2431092262 -9.6823348999 7.3166739867e-07
          -1.33202672 -0.99142831564 -2.2015752776e-08 -1.5018351078 -2.3019733429 -0.097452014685
          5.1434774399 -9.3498058319 -0.32838535309 8.0844135284 -7.4931163788 0.94945925474
          0 0 0 0.54245579243 -6.3579721451 -0.43786001205
          5.9209527969 -7.0824427605 0.8209053874 -1.5032278299 -2.3449492455 1.0678007811e-07
          0.52538824081 -6.4451861382 -0.22541862726 5.149766922 -9.3721246719 7.8415536109e-07
          -0.33620783687 -0.59204214811 0.040384374559 2.2744295597 -6.6047019958 0.28910791874
          3.1583123207 -9.0454359055 -0.56689429283 9.568778038 -10.031746864 0.41715282202
          -1.2612820864 -4.157535553 -0.33700877428 1.3952395916 -4.1461200714 0.56051546335
          0 0 0 -0.012872955762 -4.1528153419 0.20264980197
          3.1636693478 -9.108581543 -0.28429612517 -1.3047851324 -0.94506496191 -0.019618837163
          -1.3098317385 -4.2238502502 -0.15599542856 7.2311081886 -9.6587839127 0.3726079464
          4.0610833168 -6.760802269 0.69635528326 -0.32772511244 -2.0501332283 0.28931599855
          10.794500351 -12.528735161 -0.73745840788 0 0 0
          0.52433866262 -6.4700345993 5.8833211369e-07 8.3489580154 -12.187511444 -0.68151938915
          10.838172913 -12.571423531 -0.36974281073 0 0 0
          -2.2730822563 -1.0630847216 0.1778216511 8.3885698318 -12.233685493 -0.33985087276
          3.1665771008 -9.1286420822 8.2507989418e-07 -2.4516880512 -1.1250728369 0.048343732953
          -1.501834631 -2.3019733429 0.097452245653 -1.3093612194 -4.2601060867 3.2131947592e-07
          5.1434779167 -9.3498058319 0.32838693261 6.1207580566 -11.906415939 -0.62001401186
          -2.5439183712 -2.4730284214 -0.25348594785 10.84754467 -12.586956978 9.7568442925e-07
          0 0 0 -2.6457586288 -2.4774677753 -0.10501269251
          6.1439399719 -11.951446533 -0.30932784081 8.4001226425 -12.249619484 1.0421621255e-06
          -2.4239606857 -1.1932445765 -1.1005531775e-07 2.2760193348 -6.5165176392 0.57985311747
          1.1667635441 -8.8729734421 -0.48104304075 9.5154485703 -9.9665393829 0.82873409986
          0 0 0 -0.9089730978 -6.4095087051 -0.41689804196
          0.52538883686 -6.4451861382 0.22541981936 0.0177383665 -4.0470056534 0.39628696442
          7.1834082603 -9.5907907486 0.74427318573 -1.158619523 -0.82269304991 -0.13328179717
          -0.94782453775 -6.4548363686 -0.19611865282 1.1507096291 -8.9296169281 -0.24420803785
          3.1636698246 -9.108581543 0.2842977643 -1.3098312616 -4.2238502502 0.15599608421
          6.1514573097 -11.966280937 1.0891840247e-06 -2.6441590786 -2.5091047287 3.9680685404e-09
          4.0067200661 -11.69839859 -0.56323122978 -2.3435373306 -4.4365282059 -0.41725841165
          -1.4210151434 -2.2239670753 0.21225504577 10.838173866 -12.571423531 0.36974474788
          5.1187281609 -9.2828702927 0.65568339825 0 0 0
          1.152143836 -8.9483804703 8.5110349346e-07 -0.9438188076 -6.48524189 5.6721876263e-07
          4.0129351616 -11.73544693 -0.28225576878 8.3885707855 -12.233685493 0.33985298872
          -2.4198217392 -4.4217991829 -0.18007235229 -2.4516875744 -1.1250727177 -0.048343922943
          0.54245692492 -6.3579721451 0.43786123395 4.017534256 -11.74919796 1.1256412336e-06
          6.1439404488 -11.951447487 0.30933004618 -2.645758152 -2.4774677753 0.10501274467
          -2.4143722057 -4.4484081268 2.2442306147e-07 11.952996254 -15.14173317 -0.67316955328
          0 0 0 11.985343933 -15.171526909 -0.33687236905
          3.1583135128 -9.0454359055 0.56689602137 9.4241657257 -14.830166817 -0.63408613205
          -1.2612810135 -4.157535553 0.33700948954 -0.41011437774 -8.8744182587 -0.49795046449
          -0.64022684097 -1.667676568 0.32664972544 -0.9478238821 -6.4548368454 0.19611981511
          1.1507102251 -8.9296178818 0.24420975149 0 0 0
          9.4542951584 -14.862908363 -0.31554573774 -0.43676108122 -8.8925657272 -0.23924311996
          -0.62395972013 -1.7070052624 0.11984563619 1.8894541264 -11.538695335 -0.53726953268
          -1.9824892282 -6.6794862747 -0.54457032681 10.794502258 -12.528735161 0.73746043444
          0 0 0 8.3489589691 -12.187511444 0.68152153492
          11.993710518 -15.182444572 1.3354126622e-06 -2.0391609669 -6.6388454437 -0.24406693876
          1.879319787 -11.561471939 -0.26637464762 -2.2730815411 -1.0630844831 -0.1778216809
          7.0586762428 -14.58126545 -0.59108245373 -1.5701349974 -2.9558410645 0.14141732454
          0 0 0 4.0129356384 -11.73544693 0.28225806355
          -2.4198210239 -4.4217991829 0.18007284403 9.4636154175 -14.874108315 1.395184313e-06
          -0.42802518606 -8.9144392014 8.4263530198e-07 7.0798912048 -14.611266136 -0.29379889369
          -1.6699802876 -3.024889946 0.037062313408 -0.64811432362 -1.7299561501 -8.9280023374e-09
          6.1207594872 -11.906415939 0.62001621723 -2.5439171791 -2.4730284214 0.25348609686
          1.8819836378 -11.573364258 1.1580734736e-06 -2.0273442268 -6.6602892876 4.8587645551e-07
          1.1667647362 -8.8729734421 0.48104482889 7.0866847038 -14.621101379 1.4369243218e-06
          -1.6482890844 -3.0282194614 1.4471832799e-07 -0.9089718461 -6.409509182 0.41689926386
          11.985344887 -15.171527863 0.33687505126 4.8220233917 -14.41618824 -0.55762082338
          0 0 0 -2.5423409939 -4.8533267975 -0.21608407795
          4.8340067863 -14.434576988 -0.27833044529 9.4542961121 -14.862908363 0.31554853916
          -0.62395960093 -1.7070052624 -0.11984562874 -0.43676030636 -8.8925657272 0.23924483359
          -2.6360533237 -4.919397831 -0.15872529149 4.0067214966 -11.69839859 0.56323355436
          0.2103292048 -11.507840157 -0.56659960747 1.8793206215 -11.561471939 0.266377002
          -2.3435359001 -4.4365282059 0.41725897789 -2.0391602516 -6.6388454437 0.24406795204
          -1.5012583733 -9.1331863403 -0.64588689804 0.20342132449 -11.503724098 -0.27684798837
          4.8385987282 -14.443343163 1.4720667423e-06 7.0798916817 -14.611266136 0.29380178452
          -1.6699801683 -3.024889946 -0.037062015384 -1.5280538797 -9.0775728226 -0.29968479276
          -2.5354082584 -4.9049906731 2.746534733e-07 13.028078079 -17.780502319 -0.63264077902
          0 0 0 -0.41035452485 -1.9047417641 0.23043325543
          0.21501597762 -11.514037132 1.1771800246e-06 2.6807553768 -14.302745819 -0.56409645081
          10.430122375 -17.485918045 -0.59929466248 11.952997208 -15.14173317 0.67317223549
          0 0 0 0 0 0
          -1.5098853111 -9.0928268433 7.9919669815e-07 -2.7633161545 -7.0904898643 -0.68628180027
          13.049627304 -17.805280685 -0.31613910198 2.6867275238 -14.304050446 -0.27744281292
          10.451257706 -17.513160706 -0.29793694615 9.4241666794 -14.830166817 0.63408893347
          -0.40203374624 -1.8933193684 0.10185198486 -0.41011288762 -8.8744182587 0.49795228243
          -0.64022660255 -1.6676764488 -0.32664954662 -2.8201756477 -7.003238678 -0.33610549569
          4.8340072632 -14.434576988 0.27833342552 -2.6360530853 -4.919397831 0.15872587264
          7.9363231659 -17.252996445 -0.56107968092 1.8894557953 -11.538696289 0.53727197647
          -1.9824876785 -6.6794862747 0.54457139969 0 0 0
          -0.87942397594 -3.5831606388 0.14131984115 13.056319237 -17.814096451 1.7337631562e-06
          -0.40797308087 -1.9109669924 8.8047144686e-08 2.6910517216 -14.310359955 1.5133130091e-06
          7.9554858208 -17.276821136 -0.27840381861 7.0586776733 -14.58126545 0.59108543396
          10.457994461 -17.521944046 1.7822464997e-06 -1.5701345205 -2.9558410645 -0.14141698182
          -2.8022038937 -6.997657299 4.4592016479e-07 -0.93316602707 -3.6079792976 0.083877943456
          0.20342227817 -11.503724098 0.27685037255 -1.5280530453 -9.0775728226 0.29968643188
          -0.95588749647 -11.757774353 -0.70156776905 7.9608058929 -17.283502579 1.8182325903e-06
          -0.93554902077 -3.6198034286 2.7262763069e-07 -0.95273268223 -11.702762604 -0.33321017027
          5.5715074539 -17.118335724 -0.53106129169 0 0 0
          -1.3597406149 -5.3367772102 0.012256179936 13.049627304 -17.805280685 0.31614255905
          -0.40203365684 -1.8933193684 -0.10185178369 2.6867284775 -14.304050446 0.27744588256
          5.5886993408 -17.128780365 -0.26518020034 4.8220248222 -14.41618824 0.55762386322
          10.451258659 -17.513160706 0.29794049263 0.89522343874 -14.284137726 -0.5970454216
          -2.3578519821 -9.562376976 -0.80015879869 -2.5423402786 -4.8533267975 0.21608492732
          -1.4388585091 -5.4173893929 -0.0030122061726 -2.8201749325 -7.003238678 0.33610641956
          0.90445244312 -14.265805244 -0.29413321614 -2.3709311485 -9.4671697617 -0.3941103518
          -0.93259263039 -11.710911751 1.1733686733e-06 0.21033094823 -11.50784111 0.56660205126
          7.9554862976 -17.276821136 0.27840745449 -1.5012567043 -9.1331863403 0.64588856697
          5.5924015045 -17.133432388 1.8521307084e-06 -0.93316584826 -3.6079792976 -0.083877369761
          -1.4685192108 -5.4329929352 5.0536726803e-07 0.91602480412 -14.268169403 1.5521205796e-06
          -2.3582890034 -9.457909584 8.0419437154e-07 -1.8167324066 -7.315495491 -0.090133011341
          3.404409647 -17.071014404 -0.54148626328 13.028079987 -17.780502319 0.63264423609
          0 0 0 -0.95273178816 -11.702762604 0.33321255445
          -0.41035419703 -1.9047418833 -0.23043295741 -1.9043875933 -7.4489946365 -0.10494797677
          2.6807570457 -14.302745819 0.56409955025 10.430124283 -17.485918045 0.59929823875
          3.4219434261 -17.062973022 -0.26935017109 14.058722496 -20.442073822 -0.61240643263
          0 0 0 -2.763314724 -7.0904898643 0.68628275394
          14.070486069 -20.467466354 -0.30554109812 -0.22225625813 -2.0125303268 0.13807691634
          11.395236969 -20.152284622 -0.57680141926 5.5886998177 -17.128780365 0.26518392563
          0 0 0 -1.4388581514 -5.4173893929 0.0030132269021
          11.40754509 -20.179765701 -0.28667929769 -0.2044647038 -1.9857250452 0.061132136732
          0.90445351601 -14.265805244 0.29413634539 -2.3709301949 -9.4671707153 0.39411196113
          7.9363245964 -17.252996445 0.56108337641 -1.9144310951 -7.4522686005 7.9897682781e-07
          3.4273090363 -17.066583633 1.8947478111e-06 -0.8794234395 -3.5831608772 -0.1413191855
          -0.38182151318 -14.511154175 -0.71032071114 -0.45117786527 -3.828081131 0.12710505724
          8.7758207321 -19.915426254 -0.53442728519 -1.8749969006 -12.197137833 -0.83583116531
          14.075217247 -20.475982666 2.1558360004e-06 0 0 0
          -0.35974955559 -14.460823059 -0.34276565909 11.411886215 -20.187944412 2.1888492938e-06
          -0.20946460962 -1.9911986589 1.8119736467e-07 8.7899084091 -19.939519882 -0.26511144638
          -0.46927937865 -3.8243026733 0.069469258189 -1.8586320877 -12.115810394 -0.41229966283
          -0.95588570833 -11.757774353 0.70157015324 -0.34106338024 -14.462516785 1.5607671457e-06
          -2.4213309288 -9.8113059998 -0.29752829671 -1.9043873549 -7.4489946365 0.10494954139
          1.5705904961 -17.11072731 -0.59774452448 8.794052124 -19.945009232 2.2177605388e-06
          5.5715088844 -17.118337631 0.53106504679 3.4219446182 -17.06297493 0.26935395598
          -1.842751503 -12.106003761 1.1931450672e-06 -0.47264111042 -3.8322033882 4.4750751726e-07
          -1.3597398996 -5.3367772102 -0.012255121954 14.070487022 -20.467466354 0.30554541945
          6.2481546402 -19.778463364 -0.49789860845 -2.5080316067 -9.9375486374 -0.26311567426
          -0.72044813633 -5.663172245 0.08582983911 1.589581728 -17.082157135 -0.29373985529
          0.89522534609 -14.284137726 0.59704858065 -2.3578503132 -9.562376976 0.80016040802
          0 0 0 -0.75786709785 -5.7038455009 0.046731892973
          11.407546043 -20.179765701 0.28668364882 -0.20446461439 -1.9857250452 -0.061131767929
          6.2633824348 -19.78783989 -0.24898262322 -2.4166808128 -9.883272171 1.042568897e-06
          1.6016796827 -17.082952499 1.9297362996e-06 -0.35974857211 -14.460823059 0.34276881814
          6.2664070129 -19.790185928 2.2490496576e-06 -0.76571857929 -5.7249159813 7.5224545526e-07
          8.7899093628 -19.939519882 0.26511588693 -0.46927917004 -3.8243026733 -0.069468349218
          -1.8586312532 -12.115811348 0.41230204701 -1.8167316914 -7.315495491 0.09013453126
          3.4044115543 -17.071016312 0.54149007797 3.9903535843 -19.77265358 -0.50656121969
          14.058724403 -20.442073822 0.61241072416 0 0 0
          -1.0355305672 -7.7351813316 0.034797415137 -0.2222558856 -2.0125305653 -0.1380764693
          11.395238876 -20.152284622 0.5768057704 -2.5080313683 -9.9375486374 0.26311782002
          1.5895828009 -17.082157135 0.29374369979 4.0088591576 -19.759271622 -0.25432628393
          -1.3650695086 -14.935461044 -0.8274025321 -1.0771123171 -7.8263506889 0.018912659958
          -0.75786685944 -5.7038455009 -0.046730399132 6.2633833885 -19.78783989 0.24898712337
          -1.3311349154 -14.867740631 -0.40635842085 0.2035048157 -17.314937592 -0.68912094831
          -2.7066287994 -12.693193436 -0.91219675541 15.074564934 -23.14140892 -0.60759943724
          0 0 0 12.343205452 -22.850887299 -0.56729143858
          -0.38181972504 -14.511155128 0.71032381058 -0.45117726922 -3.8280813694 -0.12710411847
          8.7758216858 -19.915426254 0.53443175554 -2.6913340092 -12.623893738 -0.47011813521
          0.23395720124 -17.268964767 -0.33740967512 -1.8749953508 -12.197137833 0.8358335495
          15.078249931 -23.169984818 -0.30287909508 0 0 0
          -1.0878472328 -7.8547239304 1.0586392136e-06 4.014023304 -19.761445999 2.2845906642e-06
          -0.067545093596 -2.0275218487 0.057789362967 12.34752655 -22.880872726 -0.28211757541
          -0.052028939128 -1.9967007637 0.024785066023 -1.3148707151 -14.857995987 1.5610011133e-06
          9.6084480286 -22.601922989 -0.52137482166 -2.6766564846 -12.600941658 1.2507658766e-06
          0.25075289607 -17.265792847 1.9277488263e-06 15.080938339 -23.179244995 2.5816220841e-06
          0 0 0 -0.11364607513 -3.879096508 0.074465602636
          9.6156024933 -22.628889084 -0.25859716535 12.34976387 -22.889720917 2.5965889563e-06
          -2.421330452 -9.8113069534 0.29753068089 1.5705924034 -17.11072731 0.59774839878
          -0.051659550518 -1.9985229969 2.7774831324e-07 -0.10441678017 -3.8618144989 0.039322178811
          6.2481565475 -19.778465271 0.4979031086 -0.72044748068 -5.663172245 -0.085828356445
          -1.3305461407 -10.139543533 -0.010513890535 2.1846261024 -19.877391815 -0.5821993947
          -1.0771120787 -7.8263506889 -0.018910558894 4.0088601112 -19.759271622 0.25433087349
          -1.3825215101 -10.274283409 -0.017965164036 2.2099232674 -19.844434738 -0.28573146462
          -1.3311340809 -14.867740631 0.40636155009 9.6188812256 -22.635280609 2.6155971682e-06
          -0.10132303089 -3.8654856682 6.2604408413e-07 6.9083304405 -22.431167603 -0.4801505506
          -2.6913332939 -12.623893738 0.47012063861 0.23395819962 -17.268964767 0.33741354942
          15.078250885 -23.169984818 0.30288425088 0 0 0
          -0.15140374005 -5.7556300163 0.082222484052 6.9176740646 -22.444282532 -0.23928612471
          12.347527504 -22.880872726 0.28212276101 -0.14645080268 -5.771774292 0.043735966086
          -1.4199852943 -10.319437027 1.3496352267e-06 2.2235777378 -19.844997406 2.2913957309e-06
          -0.052028860897 -1.9967007637 -0.024784518406 9.615603447 -22.628889084 0.25860241055
          6.9206552505 -22.446826935 2.6399716262e-06 -0.14505754411 -5.7860121727 9.8700866147e-07
          3.9903554916 -19.77265358 0.50656580925 -0.84625643492 -17.69785881 -0.78425037861
          -0.10441661626 -3.8618144989 -0.039320930839 -1.0355299711 -7.7351813316 -0.034795355052
          -2.2053804398 -15.445214272 -0.91581457853 -0.80721217394 -17.643705368 -0.38567447662
          -1.3650679588 -14.935461044 0.82740563154 -2.1709372997 -15.378209114 -0.45948427916
          -1.3825212717 -10.274283409 0.017967827618 2.209924221 -19.844434738 0.28573605418
          0.20350660384 -17.314937592 0.68912476301 -2.7066276073 -12.693194389 0.9121992588
          -0.17870149016 -7.8413395882 0.091779567301 4.4941163063 -22.406581879 -0.4820780158
          15.074566841 -23.14140892 0.60760456324 0 0 0
          12.343206406 -22.850887299 0.56729662418 -0.17588303983 -7.8960175514 0.046772729605
          -0.79227137566 -17.634374619 1.8917335183e-06 -1.7503032684 -12.750440598 0.0069168321788
          0.77338701487 -20.071710587 -0.65652471781 4.5091147423 -22.392416 -0.2417819798
          -0.067544683814 -2.0275220871 -0.057788752019 -2.1564953327 -15.359520912 1.5548212104e-06
          6.9176745415 -22.444282532 0.23929139972 -0.14645062387 -5.771774292 -0.043734014034
          0.80523449183 -20.030567169 -0.32447654009 -1.8961399794 -12.990423203 -0.15565408766
          9.6084499359 -22.601922989 0.52138000727 -0.17544318736 -7.9295806885 1.3184759382e-06
          4.5133085251 -22.393274307 2.6637178507e-06 -0.11364547908 -3.879096508 -0.074464358389
          0.82085716724 -20.025115967 2.2614076443e-06 16.092699051 -25.895471573 -0.61268985271
          0 0 0 -1.843870759 -12.974040985 1.5232309352e-06
          16.090799332 -25.927722931 -0.30555766821 0 0 0
          -0.80721127987 -17.643705368 0.38567826152 13.288951874 -25.601995468 -0.56816625595
          -1.3305455446 -10.139543533 0.01051638741 2.1846280098 -19.877391815 0.58220392466
          0.086540661752 -1.968441844 -0.022961519659 -2.1709365845 -15.378209114 0.4594873786
          13.287642479 -25.634838104 -0.28297546506 0.098222211003 -1.9371346235 -0.011430708691
          6.908331871 -22.431167603 0.48015579581 16.091762543 -25.938186646 2.9898053526e-06
          -0.17588289082 -7.8960175514 -0.046770136803 10.458082199 -25.340791702 -0.52127212286
          0.23109829426 -3.7556536198 0.01935874857 4.509115696 -22.392416 0.24178729951
          0 0 0 2.725348711 -22.535245895 -0.55865335464
          -0.20729508996 -10.216756821 0.098351046443 -0.1514031291 -5.7556300163 -0.082220599055
          0.26376351714 -3.7398848534 0.0064067379571 10.459834099 -25.371202469 -0.25875484943
          13.288198471 -25.644985199 2.9863474538e-06 0.8052355051 -20.030567169 0.32448107004
          -0.20334115624 -10.337472916 0.052752498537 2.7527124882 -22.501981735 -0.27479952574
          -1.8961398602 -12.990423203 0.1556571424 0.10314361006 -1.9396976233 3.7922475826e-07
          -1.6790655851 -18.199192047 -0.87781834602 10.461890221 -25.379638672 2.9929742595e-06
          -0.8462548852 -17.69785881 0.7842541337 0.27229782939 -3.7427151203 8.0183048112e-07
          -0.20209868252 -10.383077621 1.6013684672e-06 -1.6403752565 -18.137893677 -0.43410608172
          2.7670001984 -22.501018524 2.6378902476e-06 -2.2053790092 -15.445214272 0.91581767797
          16.090801239 -25.927722931 0.30556362867 7.6255979538 -25.127603531 -0.47834825516
          -2.6686780453 -16.076900482 -1.0332505703 0 0 0
          0.4266487062 -5.5703516006 0.070947743952 -0.33950755 -20.399238586 -0.72737663984
          0.46775186062 -5.5893578529 0.035344678909 7.6309280396 -25.147716522 -0.23711057007
          13.287643433 -25.634838104 0.28298142552 -2.6548326015 -15.999984741 -0.51810842752
          -0.30357059836 -20.355762482 -0.36092549562 0.098222263157 -1.9371345043 0.011431440711
          -0.17870098352 -7.8413395882 -0.091777101159 4.4941182137 -22.406581879 0.48208329082
          -1.6250355244 -18.123693466 1.8155888029e-06 -1.7503029108 -12.750440598 -0.0069137793034
          0.77338880301 -20.071712494 0.65652918816 7.634054184 -25.152540207 3.0068638353e-06
          10.459835052 -25.371202469 0.2587608397 -2.6158406734 -15.983986855 1.5022682192e-06
          0.26376363635 -3.7398848534 -0.0064051523805 0.47962358594 -5.602493763 1.2013080095e-06
          -0.20334111154 -10.337472916 -0.052749358118 2.7527134418 -22.501981735 0.27480480075
          -0.28979003429 -20.347236633 2.184264531e-06 1.3160449266 -22.716825485 -0.62396001816
          -0.22662554681 -12.9933815 0.11833224446 1.3458902836 -22.679237366 -0.30919459462
          -0.22711884975 -13.159572601 0.057838171721 16.092699051 -25.895471573 0.61269575357
          0 0 0 -1.6403745413 -18.137893677 0.43410968781
          0.67993223667 -7.593392849 0.117263861 5.0166916847 -25.030607224 -0.4659768641
          0.72720187902 -7.6585559845 0.062274757773 13.288953781 -25.601995468 0.56817215681
          0.086541086435 -1.968441844 0.022962283343 5.0288619995 -25.022016525 -0.23238010705
          7.6309289932 -25.147716522 0.23711656034 -2.6548318863 -15.999984741 0.51811146736
          0.46775195003 -5.5893578529 -0.0353423208 -0.3035697341 -20.355762482 0.36092984676
          1.3602017164 -22.672391891 2.5710226055e-06 -0.23475928605 -13.243828773 1.8275397906e-06
          10.458083153 -25.340791702 0.52127808332 0.2310988307 -3.7556536198 -0.019357226789
          2.7253503799 -22.535245895 0.55865854025 0.74048036337 -7.6816000938 1.5295170215e-06
          -0.20729477704 -10.216756821 -0.098348088562 5.031826973 -25.022537231 3.0208593671e-06
          17.12244606 -28.715501785 -0.62316179276 0 0 0
          -1.6790642738 -18.199192047 0.8778219223 1.3458913565 -22.679237366 0.30919969082
          0 0 0 14.242383003 -28.41708374 -0.57450735569
          -2.1118834019 -18.88284111 -1.0711920261 -0.22711890936 -13.159571648 -0.057834599167
          0.27280724049 -1.8208829165 -0.11465074122 -1.1731228828 -20.88038063 -0.82666426897
          17.117559433 -28.751525879 -0.31115394831 7.6255993843 -25.127603531 0.47835421562
          14.238228798 -28.453165054 -0.28667417169 0.28640973568 -1.796954155 -0.05163904652
          -2.6686770916 -16.076900482 1.0332536697 -2.0581259727 -18.783893585 -0.51957958937
          0.42664918303 -5.5703511238 -0.07094553113 3.2347466946 -25.116031647 -0.53321123123
          0.72720187902 -7.6585555077 -0.06227177009 -0.33950600028 -20.399238586 0.72738093138
          0.97774326801 -9.9700832367 0.19060942531 5.0288629532 -25.022016525 0.23238612711
          -1.1328864098 -20.824192047 -0.40670827031 1.0320785046 -10.06375885 0.094339847565
          3.2610211372 -25.083280563 -0.26293098927 11.327923775 -28.144901276 -0.52564370632
          17.117479324 -28.763364792 3.3605010685e-06 0.65394556522 -3.4247288704 -0.019685033709
          0 0 0 11.327282906 -28.17937088 -0.26154741645
          0.71250981092 -3.4260773659 -0.020091475919 14.237710953 -28.464811325 3.3405672184e-06
          0.14636549354 -22.983448029 -0.67946344614 -2.0272731781 -18.770750046 1.6450246676e-06
          -1.1172657013 -20.815042496 2.038698085e-06 -0.30197134614 -15.887770653 0.13661493361
          0.29235684872 -1.808352828 5.0283045994e-07 0.17744240165 -22.945106506 -0.33950561285
          3.2745087147 -25.080171585 2.9765981253e-06 -0.32313388586 -16.18611145 0.035630844533
          1.0669380426 -10.10926342 1.7778824031e-06 1.3160467148 -22.716825485 0.62396508455
          11.328198433 -28.189899445 3.3359519875e-06 -0.22662548721 -12.993380547 -0.11832891405
          0.71877789497 -3.4293746948 9.7913039099e-07 8.4037227631 -27.900310516 -0.47823214531
          17.11756134 -28.751525879 0.31116065383 0.18949320912 -22.936609268 2.448993655e-06
          1.1029062271 -5.1505694389 0.1050843969 0.67993253469 -7.5933923721 -0.11726107448
          -0.30168685317 -16.077438354 1.963036766e-06 5.0166931152 -25.030607224 0.46598282456
          0 0 0 8.4078330994 -27.92858696 -0.23721283674
          1.1791236401 -5.1853022575 0.052157573402 14.238229752 -28.453165054 0.28668084741
          -2.0581254959 -18.783893585 0.51958286762 -1.1328856945 -20.824192047 0.40671232343
          0.28640973568 -1.7969540358 0.051639992744 3.2610220909 -25.083282471 0.26293694973
          1.0320783854 -10.06375885 -0.094336383045 11.327282906 -28.17937088 0.26155409217
          8.4103364944 -27.936342239 3.3423546029e-06 1.853966713 -25.255559921 -0.59508407116
          1.3660002947 -12.523982048 0.14900271595 1.2040476799 -5.1978440285 1.3805673689e-06
          0.71250981092 -3.4260771275 0.020093386993 1.5167870522 -12.733229637 0.22296088934
          0.17744328082 -22.945106506 0.33951047063 1.8801265955 -25.219621658 -0.29513350129
          -0.32313400507 -16.18611145 -0.035626988858 5.6234273911 -27.714731216 -0.44674271345
          17.12244606 -28.715501785 0.62316846848 0 0 0
          1.4937627316 -7.0654835701 0.21575969458 5.6352944374 -27.717567444 -0.22301712632
          14.242383957 -28.41708374 0.57451397181 1.5701639652 -7.1468067169 0.13461755216