<?xml version="1.0"?>
<VTKFile type="UnstructuredGrid" version="0.1" byte_order="LittleEndian" header_type="UInt32" compressor="vtkZLibDataCompressor">
  <UnstructuredGrid>
    <Piece NumberOfPoints="6405" NumberOfCells="4800">
      <PointData>
        <DataArray type="Float32" Name="DISPLACEMENT" NumberOfComponents="3" ComponentName0="X-DISPLACEMENT" ComponentName1="Y-DISPLACEMENT" ComponentName2="Z-DISPLACEMENT" format="ascii" RangeMin="0" RangeMax="330.86247763">
          0 0 0 0 0 0
          2.6282360554 -1.5669653416 -1.2023637295 0 0 0
          1.578384161 -0.89920222759 -0.85154289007 0 0 0
          2.4135687351 -1.7703895569 -0.47309178114 1.377150178 -1.0706037283 -0.34708851576
          0 0 0 4.7386398315 -3.1389420033 -1.2174702883
          0 0 0 4.6803245544 -3.3681771755 -0.62249559164
          3.1638274193 -2.6316239834 -0.94846850634 0 0 0
          0 0 0 2.4253394604 -1.8302583694 -2.5760366285e-08
          0.9332922101 -0.58555680513 -0.55254495144 1.3738123178 -1.0990475416 -4.5535714088e-10
          3.0971932411 -2.817483902 -0.48299321532 0.78870648146 -0.74658501148 -0.22996445
          4.6300940514 -3.4296813011 -1.4142614191e-08 1.9099088907 -2.2545266151 -0.67410570383
          0 0 0 3.0578494072 -2.8740973473 2.8641702343e-08
          1.8314679861 -2.4195048809 -0.34658262134 0 0 0
          6.5899968147 -5.254846096 -1.1149696112 0 0 0
          0.78544181585 -0.76927232742 1.7917374251e-08 0 0 0
          0 0 0 2.4135687351 -1.7703895569 0.47309172153
          4.6281843185 -4.7899684906 -0.91040450335 6.6161785126 -5.414744854 -0.56679862738
          0.21534571052 -0.46363931894 -0.2352078259 1.3771502972 -1.0706038475 0.34708854556
          4.646074295 -4.937962532 -0.46332836151 0.094060890377 -0.63502579927 -0.11938099563
          1.8032835722 -2.4671425819 6.401754149e-08 4.6803245544 -3.3681771755 0.62249559164
          0 0 0 0 0 0
          0.61403292418 -2.0557897091 -0.43116405606 2.9806399345 -4.4497647285 -0.7213472724
          6.5984320641 -5.4703130722 2.4725954617e-08 3.0971932411 -2.817483902 0.48299327493
          2.9624905586 -4.5823612213 -0.36597752571 0.78870654106 -0.74658507109 0.22996449471
          4.6365756989 -4.985929966 8.3125314632e-08 0.5250556469 -2.2063751221 -0.22635257244
          0.077654354274 -0.66120260954 3.429859774e-08 0 0 0
          8.2356538773 -7.6427350044 -0.96877473593 0 0 0
          6.006026268 -7.2262310982 -0.83475250006 1.8314681053 -2.4195048809 0.34658277035
          8.2893695831 -7.7488174438 -0.49108719826 2.6282360554 -1.5669654608 1.2023637295
          0 0 0 0 0 0
          0.50607019663 -2.2531821728 9.5637737729e-08 2.9535162449 -4.6249809265 1.3421738743e-07
          -0.38781791925 -0.6042073369 -0.018852137029 6.0517868996 -7.3295969963 -0.4208932519
          1.5783842802 -0.8992022872 0.85154289007 1.3237092495 -4.2148456573 -0.55879294872
          0 0 0 6.6161785126 -5.414744854 0.56679868698
          -0.49601602554 -0.76233464479 -0.027166102082 1.2852380276 -4.3305401802 -0.28066337109
          4.646074295 -4.937962532 0.46332854033 0.094060920179 -0.63502585888 0.11938106269
          4.0766458511 -6.9032611847 -0.70722663403 -0.40755939484 -2.0856263638 -0.28125905991
          8.2895116806 -7.7859969139 8.9115587798e-08 4.7386403084 -3.1389422417 1.2174702883
          0 0 0 0 0 0
          4.0920615196 -6.9997701645 -0.35589829087 3.1638276577 -2.6316242218 0.94846856594
          6.0590519905 -7.3654770851 1.5950274701e-07 -0.48714050651 -2.208804369 -0.13838428259
          0.93329232931 -0.58555692434 0.55254501104 -0.51641094685 -0.81122893095 5.073681919e-08
          1.2766200304 -4.3685388565 1.8329217255e-07 2.962490797 -4.5823616982 0.36597779393
          0.52505576611 -2.2063751221 0.22635278106 4.0938987732 -7.0333600044 2.2415069623e-07
          1.9099091291 -2.2545268536 0.67410588264 -0.49161875248 -2.2595911026 1.3290447498e-07
          2.214662075 -6.6577897072 -0.59364455938 8.2893695831 -7.7488174438 0.49108737707
          6.5899972916 -5.2548465729 1.1149696112 0 0 0
          9.6951990128 -10.188545227 -0.84716951847 0 0 0
          0 0 0 -0.06845035404 -4.1296963692 -0.40742588043
          2.2121326923 -6.7460165024 -0.29460689425 9.7488660812 -10.257331848 -0.42649540305
          7.2879562378 -9.8066825867 -0.75844228268 6.0517868996 -7.3295969963 0.42089357972
          -1.2318201065 -0.84948450327 0.15621010959 0 0 0
          4.6281847954 -4.7899689674 0.91040468216 0.21534581482 -0.46363937855 0.23520791531
          -0.10155046731 -4.2327547073 -0.20617635548 -0.49601596594 -0.76233464479 0.027166208252
          -1.3873801231 -0.97541022301 0.028749413788 1.2852381468 -4.3305401802 0.28066372871
          7.3361148834 -9.8779277802 -0.37968805432 4.0920615196 -6.9997706413 0.35589876771
          2.2105839252 -6.7751874924 2.8873674296e-07 9.7569503784 -10.282158852 1.7518370043e-07
          -1.520383358 -2.2754456997 -0.22030903399 -0.4871403873 -2.208804369 0.13838455081
          0 0 0 5.1496243477 -9.4970264435 -0.66694265604
          0.61403316259 -2.0557897091 0.43116426468 2.9806404114 -4.4497652054 0.72134757042
          -0.10405771434 -4.2678852081 2.3847442776e-07 7.348174572 -9.9026813507 2.5388249014e-07
          -1.414401412 -1.0253318548 7.629598997e-08 -1.6070219278 -2.3465969563 -0.10034046322
          5.1755747795 -9.5666370392 -0.33375287056 8.2356548309 -7.6427354813 0.96877491474
          0 0 0 0.46640330553 -6.504199028 -0.45212870836
          6.0060267448 -7.226231575 0.83475279808 -1.6072244644 -2.39067626 1.7397458407e-07
          0.45305421948 -6.590681076 -0.23127378523 5.1817774773 -9.5900993347 3.2827912833e-07
          -0.38781774044 -0.6042073369 0.01885227859 2.2121329308 -6.7460165024 0.2946074605
          3.1227786541 -9.2595252991 -0.57573670149 9.7488660812 -10.257331848 0.42649576068
          -1.3609397411 -4.257065773 -0.35558739305 1.3237096071 -4.2148456573 0.55879336596
          0 0 0 -0.1015502885 -4.2327547073 0.20617683232
          3.1314070225 -9.325261116 -0.287756145 -1.3873800039 -0.97541022301 -0.028749257326
          -1.4081604481 -4.3183703423 -0.16477300227 7.3361153603 -9.8779277802 0.37968859076
          4.076646328 -6.9032616615 0.70722711086 -0.40755909681 -2.0856266022 0.28125935793
          11.003774643 -12.827025414 -0.75544005632 0 0 0
          0.45230594277 -6.6154294014 3.5683240185e-07 8.4754629135 -12.476941109 -0.69409120083
          11.048178673 -12.873517036 -0.37863272429 0 0 0
          -2.2791073322 -1.1350454092 0.2177452147 8.5159749985 -12.526824951 -0.34609434009
          3.1339616776 -9.3459215164 4.0339585894e-07 -2.4552013874 -1.2086248398 0.056309022009
          -1.6070218086 -2.3465969563 0.10034082085 -1.4064050913 -4.3543663025 2.9204625207e-07
          5.1755752563 -9.5666370392 0.33375352621 6.1657829285 -12.187808037 -0.62630021572
          -2.6382110119 -2.5442166328 -0.2794149518 11.057739258 -12.890187263 2.7868830443e-07
          0 0 0 -2.7454087734 -2.5370128155 -0.11720186472
          6.1902604103 -12.236620903 -0.31233561039 8.5276517868 -12.543766022 3.6218071386e-07
          -2.3998625278 -1.287058115 1.0349599933e-07 2.2146625519 -6.657790184 0.59364515543
          1.0957096815 -9.0947561264 -0.4799399972 9.6951990128 -10.188545227 0.8471698761
          0 0 0 -1.0058053732 -6.5751709938 -0.43214276433
          0.4530544281 -6.590681076 0.23127450049 -0.068449981511 -4.129696846 0.40742638707
          7.2879567146 -9.8066825867 0.75844281912 -1.2318198681 -0.84948456287 -0.15620990098
          -1.0427997112 -6.6186347008 -0.20139378309 1.0838806629 -9.1549663544 -0.24411486089
          3.1314072609 -9.325261116 0.28775694966 -1.4081602097 -4.3183703423 0.16477359831
          6.1976132393 -12.252113342 4.4107750341e-07 -2.7402999401 -2.5682172775 2.0629785524e-07
          3.9738948345 -11.975942612 -0.56082355976 -2.4229443073 -4.5703549385 -0.45491272211
          -1.5203830004 -2.2754456997 0.22030942142 11.048178673 -12.873517036 0.37863329053
          5.1496248245 -9.4970264435 0.66694331169 0 0 0
          1.0852360725 -9.173992157 4.7879672138e-07 -1.0386673212 -6.6485157013 4.1643187387e-07
          3.9813816547 -12.016852379 -0.28110155463 8.5159749985 -12.526824951 0.34609505534
          -2.5033533573 -4.544169426 -0.19490088522 -2.455201149 -1.2086248398 -0.056308805943
          0.46640372276 -6.5041995049 0.45212945342 3.9854547977 -12.030718803 5.1985824712e-07
          6.1902604103 -12.236620903 0.31233650446 -2.745408535 -2.5370128155 0.11720229685
          -2.4950051308 -4.5703091621 3.2974583064e-07 12.193832397 -15.526996613 -0.68979799747
          0 0 0 12.227198601 -15.560303688 -0.34486415982
          3.1227791309 -9.2595252991 0.57573753595 9.5744657516 -15.205675125 -0.64519941807
          -1.3609392643 -4.2570662498 0.35558801889 -0.50756126642 -9.1303634644 -0.50578540564
          -0.6328021884 -1.7584608793 0.31645435095 -1.0427994728 -6.6186351776 0.20139463246
          1.0838809013 -9.1549663544 0.24411582947 0 0 0
          9.6053333282 -15.241734505 -0.32096374035 -0.53897285461 -9.145190239 -0.24013572931
          -0.62273293734 -1.7933456898 0.11995903403 1.7857577801 -11.826770782 -0.52501016855
          -2.0388131142 -6.9041042328 -0.59014976025 11.003775597 -12.827025414 0.75544065237
          0 0 0 8.4754629135 -12.476942062 0.69409197569
          12.235634804 -15.572113037 3.9613388481e-07 -2.1036236286 -6.8484296799 -0.25870478153
          1.7739166021 -11.852639198 -0.26156720519 -2.2791070938 -1.1350454092 -0.21774491668
          7.1207866669 -14.945773125 -0.59582573175 -1.5460889339 -3.0881474018 0.11233594269
          0 0 0 3.9813818932 -12.016852379 0.28110262752
          -2.5033531189 -4.544169426 0.19490157068 9.6148099899 -15.253626823 4.8114452511e-07
          -0.5307019949 -9.1682720184 5.4267377436e-07 7.1414284706 -14.978764534 -0.29578781128
          -1.6571489573 -3.1563045979 0.02813218534 -0.65077877045 -1.820582509 9.9727216707e-08
          6.1657834053 -12.18780899 0.62630110979 -2.638210535 -2.5442168713 0.27941539884
          1.7753454447 -11.865056992 5.9868057178e-07 -2.0904140472 -6.8696961403 4.5875825094e-07
          1.0957101583 -9.0947561264 0.47994095087 7.1480202675 -14.98878479 5.6098838286e-07
          -1.6399103403 -3.1614537239 2.6021228905e-07 -1.0058048964 -6.5751714706 0.4321436286
          12.227198601 -15.560303688 0.34486493468 4.7864427567 -14.772525787 -0.55507260561
          0 0 0 -2.5255494118 -5.0342063904 -0.2454688102
          4.7953042984 -14.792211533 -0.27687612176 9.6053342819 -15.241734505 0.32096469402
          -0.62273287773 -1.7933456898 -0.11995882541 -0.53897255659 -9.145190239 0.240136832
          -2.6359417439 -5.0979909897 -0.17585238814 3.9738953114 -11.975942612 0.56082463264
          0.097669765353 -11.846341133 -0.58555883169 1.7739168406 -11.852639198 0.26156842709
          -2.4229438305 -4.5703549385 0.45491343737 -2.1036233902 -6.8484296799 0.25870573521
          -1.5354243517 -9.4658555984 -0.70300960541 0.081376254559 -11.830661774 -0.28142055869
          4.7991657257 -14.800496101 6.4044763803e-07 7.1414289474 -14.978764534 0.29578894377
          -1.657148838 -3.1563048363 -0.028131661937 -1.5741502047 -9.3864831924 -0.32111108303
          -2.5369279385 -5.0774011612 4.0336192342e-07 13.297418594 -18.266988754 -0.64586269855
          0 0 0 -0.39814949036 -2.0078465939 0.21695354581
          0.092716939747 -11.842963219 6.7011006877e-07 2.5382339954 -14.668694496 -0.56082981825
          10.603225708 -17.964450836 -0.60951167345 12.193833351 -15.526996613 0.68979877234
          0 0 0 0 0 0
          -1.5547825098 -9.4017963409 5.9399889096e-07 -2.7692706585 -7.3836550713 -0.77500003576
          13.320360184 -18.293569565 -0.32246673107 2.5360620022 -14.666589737 -0.27621161938
          10.625069618 -17.993114471 -0.30289268494 9.5744667053 -15.205675125 0.64520037174
          -0.39572259784 -1.9943715334 0.096482180059 -0.50756067038 -9.1303634644 0.50578653812
          -0.63280194998 -1.7584608793 -0.31645408273 -2.8359529972 -7.2669615746 -0.37638887763
          4.7953047752 -14.792211533 0.27687740326 -2.6359415054 -5.0979909897 0.17585320771
          8.0195503235 -17.721103668 -0.56826555729 1.7857582569 -11.826770782 0.52501142025
          -2.0388123989 -6.9041047096 0.59015071392 0 0 0
          -0.8848553896 -3.7709696293 0.12303742021 13.326938629 -18.302736282 5.2392357475e-07
          -0.40262615681 -2.0118889809 1.1776490538e-07 2.5379161835 -14.672692299 7.2416861485e-07
          8.0368738174 -17.74536705 -0.28166669607 7.1207871437 -14.945773125 0.59582686424
          10.631972313 -18.002016068 6.0804103441e-07 -1.5460885763 -3.0881476402 -0.1123354435
          -2.8264689445 -7.2542214394 5.2712726983e-07 -0.94655525684 -3.7965831757 0.075427569449
          0.081376597285 -11.830661774 0.2814219296 -1.574149847 -9.3864831924 0.32111230493
          -0.97679620981 -12.192645073 -0.78066200018 8.0419378281 -17.751642227 6.8852136792e-07
          -0.95335435867 -3.8067343235 2.8282451581e-07 -0.97969281673 -12.107722282 -0.36699953675
          5.5472254753 -17.572460175 -0.53672254086 0 0 0
          -1.422270298 -5.6266269684 -0.012704536319 13.320360184 -18.293569565 0.32246780396
          -0.39572253823 -1.9943715334 -0.09648194164 2.5360622406 -14.666589737 0.27621307969
          5.5593528748 -17.580442429 -0.26787018776 4.7864432335 -14.772525787 0.55507391691
          10.625070572 -17.993114471 0.30289387703 0.77299529314 -14.716567039 -0.63605767488
          -2.3228006363 -9.9695463181 -0.89580231905 -2.5255491734 -5.0342063904 0.24546971917
          -1.5230008364 -5.7034931183 -0.0085210753605 -2.8359527588 -7.2669615746 0.37638992071
          0.77530568838 -14.680451393 -0.30882775784 -2.3423933983 -9.8452119827 -0.44492825866
          -0.9590690732 -12.113245964 7.3410222967e-07 0.097670398653 -11.846342087 0.5855602026
          8.0368738174 -17.745368958 0.28166809678 -1.5354237556 -9.4658565521 0.7030107975
          5.5621976852 -17.584018707 7.6977028129e-07 -0.94655519724 -3.7965831757 -0.075426995754
          -1.569324255 -5.7196159363 4.638611415e-07 0.78731232882 -14.683769226 8.0469641262e-07
          -2.333766222 -9.8271102905 6.7845093099e-07 -2.0107119083 -7.7106041908 -0.097908504307
          3.2480163574 -17.520004272 -0.55592685938 13.297419548 -18.266988754 0.64586371183
          0 0 0 -0.97969245911 -12.107722282 0.36700102687
          -0.39814928174 -2.0078465939 -0.21695326269 -2.1823134422 -7.8614001274 -0.16225890815
          2.5382347107 -14.66869545 0.56083136797 10.603225708 -17.964450836 0.60951292515
          3.2561523914 -17.50336647 -0.27610263228 14.347590446 -21.0385952 -0.62042987347
          0 0 0 -2.7692701817 -7.3836555481 0.77500110865
          14.361222267 -21.063146591 -0.30944493413 -0.20870052278 -2.139131546 0.12077077478
          11.587141037 -20.744421005 -0.58584457636 5.5593528748 -17.580442429 0.26787173748
          0 0 0 -1.5230007172 -5.7034931183 0.0085219983011
          11.600584984 -20.770589828 -0.29109817743 -0.19646313787 -2.110427618 0.054220512509
          0.77530604601 -14.680451393 0.30882939696 -2.3423931599 -9.8452119827 0.44492962956
          8.0195512772 -17.721103668 0.5682669282 -2.1758964062 -7.8493423462 6.4247728915e-07
          3.2581870556 -17.505296707 8.5627385715e-07 -0.88485509157 -3.7709696293 -0.12303683162
          -0.39713299274 -15.052585602 -0.79797154665 -0.44866025448 -4.0817074776 0.10580453277
          8.8828487396 -20.500869751 -0.54544514418 -1.817209959 -12.716211319 -0.94613605738
          14.365848541 -21.07125473 6.5641387437e-07 0 0 0
          -0.37437015772 -14.976290703 -0.38406819105 11.605156898 -20.778169632 7.3771298048e-07
          -0.20234927535 -2.1158864498 1.3363353446e-07 8.8954734802 -20.522420883 -0.27038419247
          -0.47313582897 -4.0755295753 0.060130331665 -1.7995712757 -12.60836792 -0.47135010362
          -0.97679555416 -12.192646027 0.7806634903 -0.35413119197 -14.974205017 8.7511693891e-07
          -2.9373073578 -10.484937668 -0.90453398228 -2.1823134422 -7.8614001274 0.16226018965
          1.4320975542 -17.620138168 -0.64756959677 8.899433136 -20.526941299 8.1822258835e-07
          5.5472259521 -17.572462082 0.53672409058 3.2561528683 -17.50336647 0.27610436082
          -1.7861275673 -12.587755203 8.2170828364e-07 -0.48092058301 -4.0851955414 3.1108808685e-07
          -1.4222699404 -5.6266269684 0.012705435045 14.361222267 -21.063146591 0.30944624543
          6.2579903603 -20.347352982 -0.51331579685 -2.9797866344 -10.428638458 -0.49977889657
          -0.76006025076 -6.055829525 0.066776044667 1.4480375051 -17.574188232 -0.31639423966
          0.77299594879 -14.716567039 0.63605934381 -2.322799921 -9.9695463181 0.89580368996
          0 0 0 -0.81542801857 -6.1045174599 0.035177718848
          11.600584984 -20.770589828 0.29109966755 -0.19646309316 -2.110427618 -0.054220248014
          6.2691569328 -20.351768494 -0.25664997101 -2.9407753944 -10.390915871 8.1481647385e-07
          1.4608941078 -17.574178696 9.351214203e-07 -0.37436977029 -14.976290703 0.38406994939
          6.271589756 -20.352739334 9.0045881507e-07 -0.8299677968 -6.1264266968 5.0594002232e-07
          8.8954734802 -20.522420883 0.27038583159 -0.47313573956 -4.0755295753 -0.060129709542
          -1.7995709181 -12.608368874 0.47135174274 -2.0107114315 -7.7106041908 0.097909733653
          3.2480168343 -17.520004272 0.55592858791 3.8628628254 -20.314556122 -0.5340834856
          14.3475914 -21.0385952 0.62043118477 0 0 0
          -1.1479048729 -8.317949295 -0.035049844533 -0.20870029926 -2.139131546 -0.12077046931
          11.587141991 -20.744421005 0.58584606647 -2.979786396 -10.428638458 0.4997805059
          1.4480378628 -17.574188232 0.31639611721 3.8742101192 -20.291755676 -0.26741415262
          -1.2833414078 -15.57937336 -0.93829405308 -1.225782156 -8.4125766754 -0.0070264032111
          -0.81542789936 -6.1045174599 -0.035176716745 6.2691574097 -20.351768494 0.25665175915
          -1.2445358038 -15.491539001 -0.46518558264 0.17578834295 -17.938631058 -0.77643126249
          -2.5361471176 -13.313295364 -1.0739893913 15.37178421 -23.846572876 -0.60985690355
          0 0 0 12.547809601 -23.555006027 -0.57405716181
          -0.39713233709 -15.052586555 0.79797333479 -0.44865989685 -4.0817074776 -0.10580391437
          8.8828487396 -20.500871658 0.5454467535 -2.5159010887 -13.210940361 -0.54965341091
          0.21042217314 -17.873191833 -0.38014611602 -1.817209363 -12.716211319 0.9461376667
          15.377671242 -23.871847153 -0.30401787162 0 0 0
          -1.2650845051 -8.4594106674 7.0031256882e-07 3.8764512539 -20.291303635 9.8553186945e-07
          -0.04051887989 -2.1719169617 0.034124013036 12.553855896 -23.581285477 -0.28540685773
          -0.031436745077 -2.1387631893 0.014607211575 -1.2276463509 -15.47364521 9.4641973192e-07
          9.7370796204 -23.304487228 -0.53373390436 -2.5003809929 -13.181282043 9.1823426374e-07
          0.23039025068 -17.867527008 9.9834858247e-07 15.380454063 -23.879970551 7.8575692442e-07
          0 0 0 -0.069216534495 -4.1681723595 0.043723773211
          9.7441368103 -23.326421738 -0.26465392113 12.556429863 -23.588819504 8.6314821601e-07
          -2.937306881 -10.484937668 0.90453565121 1.4320982695 -17.620140076 0.64757150412
          -0.031230663881 -2.1414546967 1.5062835246e-07 -0.063859730959 -4.1509814262 0.023169830441
          6.2579908371 -20.347352982 0.5133176446 -0.76005989313 -6.055829525 -0.066775068641
          -1.5523080826 -10.778743744 -0.036058101803 2.03297925 -20.451343536 -0.63647001982
          -1.2257820368 -8.4125766754 0.0070277792402 3.8742103577 -20.291755676 0.26741611958
          -1.7466299534 -11.021042824 -0.17027422786 2.0567140579 -20.402915955 -0.31208154559
          -1.2445355654 -15.491539001 0.46518746018 9.7472696304 -23.331222534 9.426548786e-07
          -0.062109883875 -4.1562666893 3.3733925875e-07 6.9656701088 -23.12556839 -0.50137573481
          -2.5159006119 -13.210941315 0.54965525866 0.21042256057 -17.873191833 0.38014811277
          15.377671242 -23.871847153 0.30401945114 0 0 0
          -0.094068191946 -6.2164077759 0.048752170056 6.9732375145 -23.131866455 -0.24997314811
          12.553855896 -23.581285477 0.28540858626 -0.091376572847 -6.2350673676 0.02582145296
          -1.7261474133 -11.02028656 8.673335401e-07 2.0706255436 -20.401189804 1.0542345308e-06
          -0.031436704099 -2.1387631893 -0.014606917277 9.7441368103 -23.326421738 0.26465582848
          6.9759931564 -23.132913589 1.0241406017e-06 -0.091079935431 -6.2593960762 5.3448172821e-07
          3.8628635406 -20.314556122 0.53408545256 -0.7621948719 -18.443134308 -0.88989561796
          -0.063859649003 -4.1509814262 -0.023169158027 -1.1479045153 -8.317949295 0.035051167011
          -1.9708285332 -16.223491669 -1.070050478 -0.71583247185 -18.373867035 -0.44193392992
          -1.2833409309 -15.579374313 0.93829590082 -1.9266184568 -16.131326675 -0.53640180826
          -1.7466298342 -11.021042824 0.17027597129 2.0567145348 -20.402915955 0.31208366156
          0.1757889986 -17.938631058 0.77643322945 -2.5361466408 -13.313296318 1.0739911795
          -0.11761274934 -8.4594860077 0.054446399212 4.4375395775 -23.069057465 -0.51747351885
          15.371785164 -23.846572876 0.60985845327 0 0 0
          12.547809601 -23.555006027 0.57405889034 -0.1171778813 -8.561873436 0.028246911243
          -0.69701755047 -18.360469818 1.0468982055e-06 -2.6804044247 -14.085040092 -1.188377738
          0.720505476 -20.745323181 -0.74090254307 4.4481887817 -23.046741486 -0.25886666775
          -0.040518663824 -2.1719169617 -0.034123685211 -1.9066528082 -16.108215332 1.0029859823e-06
          6.9732375145 -23.131866455 0.24997518957 -0.09137648344 -6.2350673676 -0.025820398703
          0.75824600458 -20.689260483 -0.36607241631 -2.6756455898 -14.01332283 -0.61424481869
          9.7370796204 -23.304489136 0.53373581171 -0.11717058718 -8.6018075943 7.1835233939e-07
          4.4509196281 -23.045490265 1.1052402442e-06 -0.069216221571 -4.1681723595 -0.04372311011
          0.77716630697 -20.681592941 1.1036368051e-06 16.388708115 -26.699676514 -0.60999453068
          0 0 0 -2.6140275002 -13.991652489 9.7674990229e-07
          16.388935089 -26.72712326 -0.30420443416 0 0 0
          -0.71583211422 -18.373867035 0.44193601608 13.500362396 -26.407302856 -0.57178705931
          -1.5523078442 -10.778743744 0.03605972603 2.0329799652 -20.451343536 0.63647216558
          0.12694384158 -2.1152620316 -0.053064145148 -1.9266182184 -16.131326675 0.53640383482
          13.50099659 -26.435077667 -0.28463739157 0.13207513094 -2.0839078426 -0.024989357218
          6.9656705856 -23.12556839 0.50137776136 16.390232086 -26.735937119 9.0341336545e-07
          -0.11717782915 -8.5618724823 -0.028245499358 10.599410057 -26.148336411 -0.53150802851
          0.31487432122 -4.0429768562 -0.019643912092 4.4481887817 -23.046741486 0.25886887312
          0 0 0 2.5923566818 -23.196485519 -0.61560153961
          -0.14376817644 -11.12547493 0.060202367604 -0.094067879021 -6.2164077759 -0.048751156777
          0.34759527445 -4.0297365189 -0.015658922493 10.602233887 -26.172197342 -0.26388049126
          13.501982689 -26.44335556 9.7710335467e-07 0.75824636221 -20.689260483 0.36607462168
          -0.14644612372 -11.296995163 0.031129589304 2.6189775467 -23.150636673 -0.30268296599
          -2.6756455898 -14.013323784 0.61424684525 0.13794989884 -2.087720871 1.663352549e-07
          -1.4326075315 -19.112026215 -1.0203555822 10.604322433 -26.178371429 1.055412099e-06
          -0.76219433546 -18.443136215 0.88989770412 0.3583907783 -4.0365877151 3.5840210444e-07
          -0.15010648966 -11.379528046 8.8173879931e-07 -1.3737494946 -19.034608841 -0.50633782148
          2.6334171295 -23.147270203 1.1637183661e-06 -1.9708280563 -16.223491669 1.0700525045
          16.388935089 -26.72712326 0.3042062223 7.7125477791 -25.939493179 -0.49917414784
          -2.1605556011 -17.120023727 -1.3125498295 0 0 0
          0.5794043541 -6.0080375671 0.024020256475 -0.28206077218 -21.196020126 -0.82920157909
          0.63635277748 -6.0439524651 0.013084675185 7.7176680565 -25.950704575 -0.24809508026
          13.50099659 -26.435077667 0.28463932872 -2.0692458153 -17.011554718 -0.63929617405
          -0.23493748903 -21.141124725 -0.41370373964 0.13207516074 -2.0839078426 0.024989679456
          -0.11761251092 -8.4594860077 -0.054445069283 4.4375400543 -23.069057465 0.51747572422
          -1.3515588045 -19.019828796 1.062479555e-06 -2.6804041862 -14.085040092 1.1883798838
          0.72050607204 -20.745323181 0.74090474844 7.7203917503 -25.953542709 1.136027322e-06
          10.602233887 -26.172197342 0.26388257742 -2.0301730633 -16.991054535 9.8886516753e-07
          0.34759533405 -4.029736042 0.015659634024 0.65286874771 -6.0619587898 5.4627139434e-07
          -0.14644613862 -11.296995163 -0.031127866358 2.6189780235 -23.15063858 0.30268532038
          -0.21663968265 -21.130626678 1.1283196955e-06 1.2512872219 -23.442893982 -0.70178449154
          -0.18252381682 -14.144904137 0.055559229106 1.2877743244 -23.394788742 -0.34819740057
          -0.19805298746 -14.491469383 0.01175758522 16.388710022 -26.699678421 0.60999631882
          0 0 0 -1.3737491369 -19.034608841 0.50633990765
          0.92939293385 -8.2509565353 0.12456490099 5.0421557426 -25.830636978 -0.50599944592
          1.0088505745 -8.3310680389 0.05429084599 13.500362396 -26.407302856 0.57178896666
          0.12694405019 -2.1152620316 0.0530644916 5.0521011353 -25.814228058 -0.25212368369
          7.7176685333 -25.950706482 0.24809734523 -2.0692455769 -17.011554718 0.639298141
          0.63635283709 -6.0439524651 -0.01308360137 -0.23493716121 -21.141124725 0.41370597482
          1.3048416376 -23.385540009 1.1981587704e-06 -0.18780447543 -14.374325752 1.0049149068e-06
          10.599411011 -26.148336411 0.53151011467 0.31487455964 -4.0429768562 0.019644604996
          2.5923573971 -23.196485519 0.61560380459 1.0452492237 -8.3731441498 7.0352569992e-07
          -0.14376808703 -11.12547493 -0.060200762004 5.0548510551 -25.813747406 1.2146537074e-06
          17.411026001 -29.605798721 -0.61722284555 0 0 0
          -1.4326070547 -19.112026215 1.020357728 1.287774682 -23.394788742 0.34819978476
          0 0 0 14.45546627 -29.309865952 -0.57525187731
          -1.586119771 -20.042879105 -1.2146111727 -0.19805309176 -14.491469383 -0.011755608022
          0.31468233466 -1.9640299082 -0.14900702238 -0.96990376711 -21.83962822 -0.94374507666
          17.407766342 -29.636547089 -0.30808362365 7.7125477791 -25.939493179 0.49917638302
          14.452957153 -29.340465546 -0.28681847453 0.32514223456 -1.9428496361 -0.067184709013
          -2.1605553627 -17.120025635 1.312551856 -1.4561218023 -19.990299225 -0.58528625965
          0.57940459251 -6.0080375671 -0.02401923947 3.1592104435 -25.89838028 -0.59289383888
          1.0088505745 -8.3310680389 -0.054289471358 -0.28206020594 -21.196022034 0.82920378447
          1.318987608 -10.691115379 0.13732361794 5.0521016121 -25.814228058 0.25212609768
          -0.90282803774 -21.783636093 -0.46709820628 1.5058553219 -10.913141251 0.20922774076
          3.186204195 -25.857679367 -0.29181751609 11.474370956 -29.042106628 -0.53302645683
          17.408157349 -29.646528244 1.0007096307e-06 0.74523025751 -3.6834316254 -0.05294849351
          0 0 0 11.475269318 -29.0694561 -0.26518577337
          0.81082820892 -3.6961948872 -0.038373131305 14.45290184 -29.350004196 1.0721458921e-06
          0.17770916224 -23.804725647 -0.76988399029 -1.4228590727 -19.971889496 9.9741100712e-07
          -0.88197469711 -21.775388718 1.1062169278e-06 -0.22091051936 -18.067354202 -0.059570662677
          0.3321377635 -1.9567637444 1.9101358362e-07 0.22217401862 -23.760883331 -0.3853007853
          3.2004141808 -25.853502274 1.2677325003e-06 -0.20897142589 -18.510694504 -0.029241502285
          1.4922229052 -10.918894768 8.2528117673e-07 1.2512879372 -23.442893982 0.70178681612
          11.476477623 -29.077421188 1.1507411273e-06 -0.18252392113 -14.144904137 -0.055557433516
          0.82029181719 -3.7016918659 3.8301260474e-07 8.4990882874 -28.808980942 -0.49716871977
          17.407766342 -29.636547089 0.3080856204 0.2373303771 -23.750768661 1.2002650465e-06
          1.2659196854 -5.526910305 0.083414532244 0.92939305305 -8.2509555817 -0.12456361204
          -0.20540007949 -18.377975464 1.0193400612e-06 5.0421562195 -25.830636978 0.50600188971
          0 0 0 8.5038032532 -28.826856613 -0.24720054865
          1.3639558554 -5.5774416924 0.036911346018 14.452957153 -29.340465546 0.2868206203
          -1.4561215639 -19.990299225 0.58528828621 -0.90282773972 -21.783636093 0.46710041165
          0.32514223456 -1.9428496361 0.067185074091 3.1862046719 -25.857681274 0.29182004929
          1.5058552027 -10.913141251 -0.20922613144 11.475269318 -29.0694561 0.26518806815
          8.5059604645 -28.832151413 1.2331086054e-06 1.8069490194 -26.065574646 -0.66506141424
          2.4673879147 -13.915804863 1.244977951 1.4083148241 -5.5923218727 5.4615088629e-07
          0.81082820892 -3.6961948872 0.038373883814 2.4644427299 -13.847697258 0.65089011192
          0.22217434645 -23.760885239 0.38530316949 1.8408534527 -26.025764465 -0.33057776093
          -0.2089715153 -18.510694504 0.02924349159 5.7078843117 -28.642333984 -0.49150133133
          17.411027908 -29.605798721 0.61722481251 0 0 0
          1.817782402 -7.5762014389 0.16071145236 5.7188820839 -28.635402679 -0.24475307763
          14.45546627 -29.309867859 0.57525402308 1.9828768969 -7.6980571747 0.17942239344