<?xml version="1.0"?>
<VTKFile type="UnstructuredGrid" version="0.1" byte_order="LittleEndian" header_type="UInt32" compressor="vtkZLibDataCompressor">
  <UnstructuredGrid>
    <Piece NumberOfPoints="6405" NumberOfCells="4800">
      <PointData>
        <DataArray type="Float32" Name="DISPLACEMENT" NumberOfComponents="3" ComponentName0="X-DISPLACEMENT" ComponentName1="Y-DISPLACEMENT" ComponentName2="Z-DISPLACEMENT" format="ascii" RangeMin="0" RangeMax="312.68555576">
          0 0 0 0 0 0
          2.5437533855 -1.5601561069 -1.1578155756 0 0 0
          1.5313876867 -0.92031371593 -0.83105999231 0 0 0
          2.3369820118 -1.7480677366 -0.45482438803 1.3333981037 -1.0755803585 -0.33869189024
          0 0 0 4.5561394691 -3.0824644566 -1.1640828848
          0 0 0 4.5020442009 -3.2913472652 -0.59694457054
          3.0711500645 -2.5997648239 -0.92588227987 0 0 0
          0 0 0 2.347735405 -1.8033151627 2.7266071623e-09
          0.93931382895 -0.61797171831 -0.55873346329 1.3282694817 -1.1003826857 3.7678596243e-08
          3.0077679157 -2.7665100098 -0.47167780995 0.78966200352 -0.75977820158 -0.2317366749
          4.4533967972 -3.3477993011 2.2868992744e-07 1.9321867228 -2.2370696068 -0.68424218893
          0 0 0 2.9689593315 -2.8181903362 2.675021733e-07
          1.8553361893 -2.3818798065 -0.35087141395 0 0 0
          6.3112635612 -5.0746793747 -1.0617961884 0 0 0
          0.78207498789 -0.77806866169 2.0662398015e-08 0 0 0
          0 0 0 2.3369824886 -1.7480678558 0.45482444763
          4.4870505333 -4.6312541962 -0.88192915916 6.3397703171 -5.2174949646 -0.54080343246
          0.28271043301 -0.4817904532 -0.27537488937 1.3333983421 -1.0755803585 0.33869200945
          4.5085306168 -4.7633090019 -0.44911977649 0.15308994055 -0.62921237946 -0.1341047883
          1.8249648809 -2.4239535332 2.498343008e-07 4.5020446777 -3.2913475037 0.59694504738
          0 0 0 0 0 0
          0.77302366495 -2.0368895531 -0.47805503011 2.9968709946 -4.3039655685 -0.71517795324
          6.3236942291 -5.2680931091 6.2938676137e-07 3.007768631 -2.7665102482 0.4716783762
          2.9860775471 -4.4227323532 -0.3628885746 0.78966230154 -0.75977820158 0.23173677921
          4.4997358322 -4.8067793846 6.6016087885e-07 0.68797075748 -2.1637465954 -0.24645373225
          0.13400962949 -0.64858776331 -2.7593991092e-08 0 0 0
          7.8729724884 -7.2934894562 -0.91837596893 0 0 0
          5.8146958351 -6.8929719925 -0.80035191774 1.8553369045 -2.3818798065 0.35087198019
          7.9276680946 -7.3869614601 -0.46573024988 2.5437541008 -1.5601564646 1.157815814
          0 0 0 0 0 0
          0.66503292322 -2.2030808926 1.9238405002e-07 2.9762430191 -4.4611539841 6.4222257379e-07
          -0.24193717539 -0.5936281085 -0.094071447849 5.8624157906 -6.9850773811 -0.40358170867
          1.5313882828 -0.92031383514 0.83106029034 1.5377299786 -4.0728955269 -0.56686234474
          0 0 0 6.3397707939 -5.2174949646 0.54080474377
          -0.34075331688 -0.72688895464 -0.057699847966 1.511782527 -4.1791930199 -0.28403624892
          4.5085315704 -4.7633094788 0.44912114739 0.15309037268 -0.62921231985 0.1341048032
          4.0669016838 -6.5758423805 -0.68261528015 -0.16358594596 -2.0307471752 -0.31731244922
          7.9289155006 -7.4200048447 1.1795237924e-06 4.5561404228 -3.0824649334 1.1640836
          0 0 0 0 0 0
          4.085955143 -6.6640872955 -0.34397986531 3.0711510181 -2.5997650623 0.92588299513
          5.8700885773 -7.016960144 1.1938425359e-06 -0.22394232452 -2.1445116997 -0.16020381451
          0.9393144846 -0.61797171831 0.55873376131 -0.35389873385 -0.76680868864 -1.4308481866e-07
          1.5021193027 -4.21225214 5.8678438108e-07 2.9860785007 -4.4227323532 0.3628899157
          0.68797165155 -2.1637465954 0.24645417929 4.0874786377 -6.693406105 1.1715083019e-06
          1.9321880341 -2.2370696068 0.68424290419 -0.23092156649 -2.1851742268 7.827311066e-08
          2.4068117142 -6.3373179436 -0.56656640768 7.9276690483 -7.386961937 0.46573263407
          6.3112649918 -5.0746793747 1.0617976189 0 0 0
          9.2566299438 -9.6510152817 -0.79885238409 0 0 0
          0 0 0 0.20975095034 -3.9619367123 -0.39636832476
          2.4064865112 -6.4215602875 -0.28422185779 9.3097801208 -9.7093763351 -0.40205606818
          7.0463552475 -9.2862014771 -0.72292333841 5.8624167442 -6.9850773811 0.40358412266
          -1.0004247427 -0.80516839027 0.064104750752 0 0 0
          4.4870524406 -4.6312541962 0.88193064928 0.28271123767 -0.48179027438 0.27537515759
          0.18276032805 -4.0657596588 -0.20446439087 -0.34075272083 -0.72688877583 0.057699654251
          -1.1293983459 -0.91548514366 -0.006418291945 1.5117837191 -4.1791930199 0.28403747082
          7.0938239098 -9.3478040695 -0.36188596487 4.0859565735 -6.6640872955 0.3439822495
          2.405510664 -6.4473361969 1.1170308198e-06 9.3181180954 -9.730629921 1.8569114673e-06
          -1.1804007292 -2.1913356781 -0.23409880698 -0.22394126654 -2.1445114613 0.16020403802
          0 0 0 5.1008796692 -8.9840774536 -0.64126867056
          0.77302527428 -2.0368895531 0.47805568576 2.9968729019 -4.3039655685 0.71517944336
          0.17694722116 -4.0950994492 5.0102528348e-07 7.105984211 -9.3690910339 1.8493682319e-06
          -1.1491392851 -0.95673894882 -3.507588815e-07 -1.2511841059 -2.269354105 -0.10848249495
          5.1248655319 -9.0450744629 -0.3214494288 7.8729748726 -7.293489933 0.91837847233
          0 0 0 0.73400342464 -6.1795196533 -0.43258315325
          5.8146977425 -6.8929719925 0.80035442114 -1.2528338432 -2.3091645241 -1.543504311e-07
          0.71335893869 -6.2623915672 -0.22388897836 5.13159132 -9.0651655197 1.8045247998e-06
          -0.24193614721 -0.59362769127 0.094071544707 2.4064879417 -6.4215602875 0.28422409296
          3.255812645 -8.7519702911 -0.5600181222 9.3097820282 -9.7093763351 0.40205982327
          -0.98999196291 -4.0640492439 -0.34264281392 1.5377322435 -4.0728955269 0.56686371565
          0 0 0 0.18276160955 -4.065759182 0.20446540415
          3.2578341961 -8.8083667755 -0.28188842535 -1.1293973923 -0.91548490524 0.0064176712185
          -1.0378056765 -4.1281304359 -0.15805223584 7.0938248634 -9.3478040695 0.36188969016
          4.066904068 -6.5758419037 0.68261772394 -0.16358408332 -2.0307466984 0.31731280684
          10.487835884 -12.085888863 -0.70897310972 0 0 0
          0.7118396759 -6.2862110138 1.0253030496e-06 8.17715168 -11.758634567 -0.66208666563
          10.530647278 -12.122153282 -0.35560140014 0 0 0
          -2.0411000252 -1.0278644562 0.088126443326 8.2158946991 -11.798488617 -0.3301294446
          3.2610428333 -8.8267698288 1.7254258182e-06 -2.2066013813 -1.0750333071 0.017666248605
          -1.2511827946 -2.2693538666 0.10848223418 -1.0382606983 -4.1629490852 2.7538445124e-07
          5.1248669624 -9.0450744629 0.32145306468 6.0809807777 -11.491024971 -0.61096483469
          -2.1991624832 -2.4424538612 -0.27393475175 10.540030479 -12.135714531 2.6479219741e-06
          0 0 0 -2.2919619083 -2.4486746788 -0.11429773271
          6.1036529541 -11.529555321 -0.30476516485 8.2274255753 -11.812623978 2.6129657726e-06
          -2.1935577393 -1.1313407421 -7.5265637633e-07 2.4068143368 -6.3373174667 0.56656867266
          1.3603578806 -8.577088356 -0.49328523874 9.2566328049 -9.6510152817 0.79885619879
          0 0 0 -0.61909335852 -6.2226848602 -0.42243880033
          0.7133603096 -6.2623915672 0.22389103472 0.20975331962 -3.9619362354 0.39636939764
          7.0463581085 -9.2862014771 0.72292715311 -1.0004233122 -0.80516773462 -0.06410510093
          -0.65812343359 -6.2631311417 -0.20068517327 1.3405308723 -8.6245164871 -0.24902078509
          3.2578356266 -8.8083667755 0.28189188242 -1.0378042459 -4.1281304359 0.15805281699
          6.111597538 -11.543003082 2.5327565254e-06 -2.2912347317 -2.4792280197 -5.7668705722e-07
          4.1010518074 -11.293739319 -0.56764924526 -1.9804522991 -4.3323192596 -0.42229679227
          -1.1803984642 -2.1913352013 0.23409867287 10.530649185 -12.122153282 0.35560673475
          5.1008825302 -8.9840774536 0.64127236605 0 0 0
          1.3418177366 -8.6416730881 1.60126217e-06 -0.65353280306 -6.2927613258 7.9384096807e-07
          4.1077852249 -11.323869705 -0.28408315778 8.2158956528 -11.798488617 0.33013468981
          -2.0492415428 -4.3183398247 -0.18432091177 -2.2066001892 -1.0750329494 -0.017667671666
          0.73400610685 -6.1795191765 0.43258523941 4.1132006645 -11.336785316 2.4193818717e-06
          6.1036543846 -11.529555321 0.30477026105 -2.2919604778 -2.4486746788 0.11429666728
          -2.0451307297 -4.3433904648 -1.3556362433e-07 11.598156929 -14.554084778 -0.64724391699
          0 0 0 11.629277229 -14.578559875 -0.32422569394
          3.255815506 -8.7519702911 0.56002169847 9.2165517807 -14.256103516 -0.61608195305
          -0.98998934031 -4.0640487671 0.34264349937 -0.10796944797 -8.5530462265 -0.50848680735
          -0.61357414722 -1.5484073162 0.3203111887 -0.65812182426 -6.2631311417 0.2006868124
          1.3405324221 -8.6245164871 0.24902403355 0 0 0
          9.2459640503 -14.283781052 -0.30667388439 -0.12739190459 -8.5681409836 -0.24723187089
          -0.59758496284 -1.6004445553 0.11231391132 2.1304512024 -11.131900787 -0.55674082041
          -1.6169208288 -6.462416172 -0.53505378962 10.487838745 -12.085888863 0.70897847414
          0 0 0 8.177154541 -11.758634567 0.66209197044
          11.637721062 -14.587986946 3.5455282159e-06 -1.6622653008 -6.4277529716 -0.2463336885
          2.1257314682 -11.148067474 -0.27419647574 -2.0410983562 -1.0278635025 -0.088127523661
          6.9933590889 -14.020627975 -0.58152419329 -1.5138382912 -2.8205361366 0.16174261272
          0 0 0 4.1077871323 -11.323869705 0.28408804536
          -2.0492398739 -4.3183393478 0.18432073295 9.2551651001 -14.293697357 3.4786805827e-06
          -0.11757658422 -8.5867156982 1.3866268773e-06 7.0160746574 -14.046080589 -0.28936842084
          -1.6170244217 -2.9056668282 0.028184954077 -0.62020355463 -1.6185455322 -3.4807160887e-07
          6.0809841156 -11.491024017 0.6109700799 -2.1991598606 -2.442453146 0.27393382788
          2.1302394867 -11.158349037 2.2860754143e-06 -1.6500749588 -6.4478831291 4.14210092e-07
          1.36036098 -8.5770874023 0.49328863621 7.0231933594 -14.055069923 3.3692915622e-06
          -1.5819641352 -2.902400732 -3.1547517665e-07 -0.61909037828 -6.2226843834 0.42244052887
          11.629279137 -14.578559875 0.3242328167 4.911503315 -13.866633415 -0.55630677938
          0 0 0 -2.4198615551 -4.6878032684 -0.32748317719
          4.928647995 -13.882386208 -0.27782306075 9.2459659576 -14.283781052 0.30668085814
          -0.59758460522 -1.6004443169 -0.11231452972 -0.12739005685 -8.5681409836 0.24723471701
          -2.5042169094 -4.7209811211 -0.19288791716 4.1010551453 -11.293739319 0.56765431166
          0.53247857094 -11.066991806 -0.55955141783 2.1257333755 -11.148067474 0.27420112491
          -1.9804493189 -4.332318306 0.42229673266 -1.6622633934 -6.4277529716 0.24633461237
          -1.1528902054 -8.7705640793 -0.6195474267 0.53703117371 -11.069152832 -0.27794745564
          4.9340939522 -13.890678406 3.2379593904e-06 7.016076088 -14.046080589 0.28937521577
          -1.6170238256 -2.9056665897 -0.02818554081 -1.1649549007 -8.7308969498 -0.29316452146
          -2.4231579304 -4.7148799896 -3.0361644576e-07 12.630857468 -17.030002594 -0.61124223471
          0 0 0 -0.42023730278 -1.7624374628 0.24664501846
          0.54904961586 -11.076051712 2.1318739982e-06 2.9471120834 -13.753232002 -0.5620469451
          10.189343452 -16.746213913 -0.58226388693 11.598160744 -14.554084778 0.64725106955
          0 0 0 0 0 0
          -1.1468640566 -8.7443761826 1.0831139434e-06 -2.384729147 -6.8315019608 -0.65953505039
          12.650798798 -17.05185318 -0.30567967892 2.9638853073 -13.756611824 -0.27680003643
          10.209670067 -16.770978928 -0.28956705332 9.2165555954 -14.256103516 0.6160889864
          -0.40695080161 -1.7630497217 0.10888426751 -0.1079659909 -8.5530452728 0.50848984718
          -0.61357367039 -1.548407197 -0.32031139731 -2.4263615608 -6.7556586266 -0.32535281777
          4.9286499023 -13.882386208 0.27782958746 -2.5042159557 -4.7209806442 0.19288738072
          7.8434681892 -16.524126053 -0.54791557789 2.1304550171 -11.131899834 0.55674570799
          -1.6169173717 -6.4624152184 0.53505480289 0 0 0
          -0.86137205362 -3.350486517 0.16168566048 12.65768528 -17.05991745 4.5338174459e-06
          -0.4124353826 -1.7819203138 -5.9693661569e-08 2.9709186554 -13.76230526 3.1120391668e-06
          7.8647785187 -16.546724319 -0.27208289504 6.9933629036 -14.020627975 0.58153104782
          10.216259956 -16.779233932 4.4283233365e-06 -1.5138373375 -2.820536375 -0.16174289584
          -2.4112672806 -6.7523965836 7.2883800328e-08 -0.90950238705 -3.3890531063 0.093217641115
          0.53703331947 -11.069152832 0.27795177698 -1.1649528742 -8.7308959961 0.29316675663
          -0.62626999617 -11.254716873 -0.64998036623 7.8704967499 -16.553318024 4.2926963033e-06
          -0.9130012989 -3.4072113037 9.7275830058e-08 -0.61420041323 -11.221138 -0.31243792176
          5.6417770386 -16.40196991 -0.51883214712 0 0 0
          -1.2681541443 -4.990421772 0.046657983214 12.650800705 -17.05185318 0.30568876863
          -0.40695056319 -1.7630497217 -0.10888429731 2.9638876915 -13.756611824 0.27680632472
          5.6645708084 -16.41411972 -0.2590828836 4.9115071297 -13.866632462 0.5563133955
          10.209671021 -16.770978928 0.28957593441 1.2139376402 -13.697118759 -0.56634610891
          -1.9832624197 -9.1558685303 -0.74368721247 -2.4198596478 -4.6878027916 0.3274833262
          -1.3413692713 -5.0943279266 0.0026093164925 -2.4263596535 -6.7556581497 0.32535296679
          1.2309802771 -13.69015789 -0.28244447708 -1.9875189066 -9.0825176239 -0.3656218648
          -0.5939437747 -11.230006218 1.9077008346e-06 0.53248256445 -11.066991806 0.55955582857
          7.864780426 -16.546724319 0.27209150791 -1.1528863907 -8.7705640793 0.61954975128
          5.6694221497 -16.418992996 4.1467242227e-06 -0.90950185061 -3.3890531063 -0.093217357993
          -1.3649874926 -5.1062064171 3.9754254999e-07 1.2425887585 -13.691740036 2.987295602e-06
          -1.9710319042 -9.0785608292 8.2616475083e-07 -1.6484863758 -6.876970768 -0.057069409639
          3.6590631008 -16.362421036 -0.5196081996 12.630860329 -17.030002594 0.61125135422
          0 0 0 -0.61419832706 -11.221138 0.31244179606
          -0.42023676634 -1.7624377012 -0.24664478004 -1.7249135971 -7.0231041908 -0.086712352931
          2.947116375 -13.753232002 0.56205332279 10.189346313 -16.746213913 0.58227282763
          3.6855995655 -16.36059761 -0.25930321217 13.629741669 -19.518903732 -0.59682881832
          0 0 0 -2.3847255707 -6.8315010071 0.65953528881
          13.639511108 -19.544294357 -0.29782640934 -0.2538331151 -1.8418403864 0.17134743929
          11.126034737 -19.236400604 -0.56129086018 5.6645727158 -16.41411972 0.25909119844
          0 0 0 -1.3413684368 -5.0943279266 -0.0026084736455
          11.137068748 -19.264339447 -0.27901601791 -0.22594596446 -1.8248152733 0.075222015381
          1.230982542 -13.69015789 0.28245049715 -1.9875171185 -9.0825176239 0.36562353373
          7.8434715271 -16.524126053 0.54792422056 -1.7348381281 -7.027534008 8.7342823463e-07
          3.6940629482 -16.364992142 4.0111572162e-06 -0.86137098074 -3.3504867554 -0.16168512404
          -0.062139838934 -13.856395721 -0.64694654942 -0.4863922894 -3.5170619488 0.17429579794
          8.6536645889 -19.007165909 -0.51792007685 -1.5125253201 -11.643592834 -0.76828932762
          13.644360542 -19.552913666 5.5816994973e-06 0 0 0
          -0.036659482867 -13.824184418 -0.31319531798 11.141187668 -19.272808075 5.4303641264e-06
          -0.2307600379 -1.8324449062 2.4684135269e-07 8.6690406799 -19.033035278 -0.25701355934
          -0.49710276723 -3.527043581 0.092973440886 -1.4922448397 -11.579344749 -0.37489849329
          -0.62626600266 -11.254715919 0.64998424053 -0.018062019721 -13.828437805 2.7808089271e-06
          -2.0851824284 -9.2740383148 -0.22369794548 -1.7249128819 -7.0231041908 0.086714066565
          1.8818186522 -16.366849899 -0.55508941412 8.6734752655 -19.039157867 5.26824806e-06
          5.6417808533 -16.401968002 0.51884055138 3.6856021881 -16.36059761 0.25931125879
          -1.4726845026 -11.576986313 1.6734710471e-06 -0.49703514576 -3.538340807 6.7615133048e-07
          -1.2681525946 -4.9904222488 -0.046656880528 13.639513016 -19.544294357 0.29783755541
          6.2817568779 -18.884391785 -0.47764930129 -2.1687943935 -9.4122867584 -0.22089512646
          -0.74277436733 -5.2201461792 0.13877847791 1.9047323465 -16.349487305 -0.27369871736
          1.2139419317 -13.697118759 0.56635218859 -1.9832587242 -9.1558675766 0.7436888814
          0 0 0 -0.77310371399 -5.2756404877 0.075698025525
          11.137070656 -19.264339447 0.27902689576 -0.22594572604 -1.8248152733 -0.07522148639
          6.3007354736 -18.897796631 -0.23857578635 -2.0880715847 -9.3599061966 1.2659041886e-06
          1.9164801836 -16.351222992 3.8682651393e-06 -0.036657322198 -13.824184418 0.31320089102
          6.3046712875 -18.900892258 5.1089705266e-06 -0.77908635139 -5.3008008003 1.1951527767e-06
          8.6690425873 -19.033035278 0.25702410936 -0.49710232019 -3.527043581 -0.092972047627
          -1.4922429323 -11.579344749 0.37490186095 -1.6484848261 -6.8769712448 0.057071264833
          3.6590676308 -16.362421036 0.51961630583 4.2091379166 -18.899066925 -0.47474834323
          13.629745483 -19.518903732 0.59683996439 0 0 0
          -1.0216972828 -7.1554775238 0.099406689405 -0.25383239985 -1.841840744 -0.17134670913
          11.126038551 -19.236400604 0.56130170822 -2.1687936783 -9.4122867584 0.22089771926
          1.9047347307 -16.349487305 0.27370646596 4.2337031364 -18.892261505 -0.2389831394
          -1.015789628 -14.223101616 -0.75341260433 -1.0559055805 -7.2581906319 0.052042465657
          -0.77310317755 -5.2756404877 -0.075695611537 6.300737381 -18.897796631 0.23858600855
          -0.97957181931 -14.168493271 -0.36620736122 0.51797378063 -16.499231339 -0.62174677849
          -2.3058953285 -12.090999603 -0.82417052984 14.625040054 -22.046205521 -0.59780883789
          0 0 0 12.0513134 -21.760076523 -0.55425387621
          -0.062135789543 -13.856395721 0.64695215225 -0.48639112711 -3.517062664 -0.17429426312
          8.6536684036 -19.007164001 0.51793062687 -2.2851350307 -12.037653923 -0.42462471128
          0.54855972528 -16.46727562 -0.3046605289 -1.5125216246 -11.643591881 0.76829266548
          14.626573563 -22.077205658 -0.29798230529 0 0 0
          -1.0641392469 -7.2892041206 1.7268364445e-06 4.2415075302 -18.895940781 4.9532436606e-06
          -0.12544730306 -1.8331334591 0.10699693859 12.053929329 -21.792842865 -0.27568954229
          -0.096450448036 -1.8105005026 0.045834373683 -0.96117776632 -14.165235519 2.5259332688e-06
          9.4587268829 -21.514860153 -0.5041385293 -2.2660841942 -12.019306183 1.5286528878e-06
          0.56445086002 -16.466468811 3.6484132124e-06 14.629159927 -22.087320328 6.6463494477e-06
          0 0 0 -0.21141915023 -3.5252082348 0.13833768666
          9.4659233093 -21.545890808 -0.25005292892 12.055841446 -21.802717209 6.44395368e-06
          -2.0851809978 -9.2740383148 0.22370122373 1.8818230629 -16.366849899 0.55509716272
          -0.095536202192 -1.8133497238 5.7043570223e-07 -0.19332994521 -3.5169086456 0.07303725183
          6.2817606926 -18.884391785 0.47765955329 -0.74277299643 -5.220146656 -0.13877600431
          -1.2644711733 -9.4325246811 0.060103669763 2.4918103218 -18.97508049 -0.53386622667
          -1.0559049845 -7.2581906319 -0.052039001137 4.2337055206 -18.892261505 0.23899304867
          -1.300798893 -9.5728807449 0.0216160696 2.5185074806 -18.951583862 -0.26193854213
          -0.97956985235 -14.168493271 0.36621242762 9.4693870544 -21.553577423 6.2504200287e-06
          -0.18753391504 -3.5224895477 1.291556714e-06 6.8957843781 -21.351781845 -0.45571145415
          -2.2851333618 -12.037652969 0.42462778091 0.54856193066 -16.46727562 0.30466783047
          14.626574516 -22.077205658 0.29799559712 0 0 0
          -0.28343576193 -5.2520098686 0.15562136471 6.9070272446 -21.370565414 -0.22670161724
          12.053931236 -21.792842865 0.2757024467 -0.27311515808 -5.2750825882 0.082603894174
          -1.3364553452 -9.6116914749 2.2259359866e-06 2.5313570499 -18.953237534 4.755926966e-06
          -0.096450269222 -1.8105005026 -0.04583324492 9.4659252167 -21.545888901 0.2500654161
          6.9105072021 -21.37417984 6.0735392253e-06 -0.27023556828 -5.2903847694 2.0343229608e-06
          4.2091422081 -18.899066925 0.4747582376 -0.51346832514 -16.813539505 -0.70539009571
          -0.19332957268 -3.5169086456 -0.073034666479 -1.0216958523 -7.1554784775 -0.099403202534
          -1.8504480124 -14.672987938 -0.82287031412 -0.4728833437 -16.771207809 -0.3444212079
          -1.0157859325 -14.223101616 0.75341767073 -1.807161808 -14.620919228 -0.41192284226
          -1.3007981777 -9.5728807449 -0.021611660719 2.5185098648 -18.951583862 0.26194801927
          0.51797789335 -16.499231339 0.62175405025 -2.3058919907 -12.09099865 0.82417368889
          -0.34199291468 -7.1834902763 0.17408317327 4.6546421051 -21.352005005 -0.44490775466
          14.625043869 -22.046205521 0.59782207012 0 0 0
          12.051317215 -21.760076523 0.55426669121 -0.33528345823 -7.2414774895 0.091593615711
          -0.45747065544 -16.766649246 3.3466199056e-06 -1.5238850117 -11.870857239 0.12166076154
          1.0882161856 -19.095163345 -0.58913224936 4.6739802361 -21.343490601 -0.22358135879
          -0.12544643879 -1.8331338167 -0.10699566454 -1.7925906181 -14.606743813 2.280477247e-06
          6.9070286751 -21.370565414 0.22671374679 -0.27311471105 -5.2750825882 -0.082599870861
          1.1184058189 -19.06436348 -0.29150077701 -1.6442960501 -12.10315609 -0.07530259341
          9.458729744 -21.514858246 0.50415098667 -0.33660253882 -7.2713932991 2.7035775929e-06
          4.6798071861 -21.345571518 5.8982527662e-06 -0.21141788363 -3.5252087116 -0.13833510876
          1.1324506998 -19.060295105 4.4813182285e-06 15.631451607 -24.636064529 -0.6074719429
          0 0 0 -1.6200813055 -12.110657692 2.593015779e-06
          15.627633095 -24.67212677 -0.30298602581 0 0 0
          -0.47288134694 -16.771207809 0.34442791343 12.979698181 -24.345077515 -0.55805677176
          -1.2644697428 -9.4325246811 -0.060099419206 2.4918146133 -18.975078583 0.53387564421
          0.0033623315394 -1.75984025 0.042156230658 -1.8071600199 -14.620918274 0.41192740202
          12.976644516 -24.381999969 -0.27808049321 0.030369294807 -1.7345057726 0.016607360914
          6.8957881927 -21.351781845 0.45572352409 15.628274918 -24.683927536 7.6824881035e-06
          -0.335283041 -7.2414770126 -0.091588288546 10.288199425 -24.08433342 -0.50592136383
          0.077251091599 -3.3838217258 0.096887029707 4.6739821434 -21.343490601 0.22359313071
          0 0 0 3.0208129883 -21.467760086 -0.50769269466
          -0.39066144824 -9.3838090897 0.19948683679 -0.28343445063 -5.2520108223 -0.15561746061
          0.11629772186 -3.3710346222 0.047503743321 10.289100647 -24.120351791 -0.25104808807
          12.976804733 -24.393707275 7.4263220995e-06 1.1184080839 -19.06436348 0.2915097177
          -0.39325276017 -9.4911184311 0.10312597454 3.048776865 -21.442199707 -0.24996161461
          -1.6442955732 -12.10315609 0.075307682157 0.035064764321 -1.7364981174 9.1240627853e-07
          -1.36723423 -17.231105804 -0.76811218262 10.291160583 -24.13070488 7.1929266596e-06
          -0.51346462965 -16.813537598 0.70539671183 0.12726034224 -3.3732373714 1.9163967409e-06
          -0.3937227428 -9.5358705521 3.2536145227e-06 -1.3237218857 -17.189178467 -0.37965756655
          3.062135458 -21.442070007 5.6179815147e-06 -1.8504446745 -14.672987938 0.82287484407
          15.627634048 -24.67212677 0.30300137401 7.5811443329 -23.867774963 -0.45331171155
          -2.2826030254 -15.08259964 -0.66229742765 0 0 0
          0.19699966908 -5.0491251945 0.15344020724 -0.019795732573 -19.338102341 -0.64417308569
          0.23828159273 -5.0642900467 0.0790726915 7.5873227119 -23.895862579 -0.22408486903
          12.976646423 -24.381999969 0.27809530497 -2.2955813408 -15.128623009 -0.37600928545
          0.016192952171 -19.306674957 -0.31878527999 0.030369397253 -1.7345056534 -0.016605602577
          -0.34199169278 -7.18349123 -0.17407809198 4.6546459198 -21.352003098 0.44491943717
          -1.3097947836 -17.17858696 3.001243158e-06 -1.5238839388 -11.870857239 -0.1216557771
          1.0882202387 -19.095163345 0.58914113045 7.5909957886 -23.902339935 6.9827610787e-06
          10.289102554 -24.120351791 0.25106245279 -2.2195205688 -15.093830109 2.3354079985e-06
          0.11629794538 -3.3710343838 -0.047499962151 0.24990543723 -5.0747900009 2.8566896617e-06
          -0.39325243235 -9.4911174774 -0.10311957449 3.0487792492 -21.4421978 0.24997282028
          0.028949283063 -19.300769806 4.116924174e-06 1.6354984045 -21.583770752 -0.55857223272
          -0.44274654984 -11.966431618 0.18855959177 1.66421628 -21.555080414 -0.27690702677
          -0.44145685434 -12.11641407 0.10544505715 15.631454468 -24.636064529 0.6074872613
          0 0 0 -1.3237200975 -17.189176559 0.37966355681
          0.36551132798 -6.9074006081 0.20454709232 5.1038246155 -23.779146194 -0.42293688655
          0.40749335289 -6.9588737488 0.10790130496 12.979701042 -24.345077515 0.55807155371
          0.0033633210696 -1.7598404884 -0.042154416442 5.1201734543 -23.776475906 -0.21149964631
          7.5873246193 -23.895862579 0.22409880161 -2.2955806255 -15.128622055 0.37601396441
          0.23828181624 -5.0642895699 -0.079067088664 0.016194971278 -19.306674957 0.31879347563
          1.6775134802 -21.549541473 5.2622699513e-06 -0.4587431252 -12.17714119 3.6780556911e-06
          10.288202286 -24.08433342 0.50593566895 0.077252343297 -3.3838219643 -0.096883416176
          3.0208175182 -21.467760086 0.50770378113 0.41822564602 -6.979142189 3.6196943256e-06
          -0.39066049457 -9.3838100433 -0.19948074222 5.1237874031 -23.778024673 6.7906457843e-06
          16.65489769 -27.302427292 -0.62065690756 0 0 0
          -1.3672308922 -17.231105804 0.76811802387 1.6642184258 -21.555080414 0.27691751719
          0 0 0 13.92028141 -27.005331039 -0.56686502695
          -1.9808863401 -17.746837616 -0.86691409349 -0.44145664573 -12.116413116 -0.10543784499
          0.16610339284 -1.6016224623 -0.031793504953 -0.89627432823 -19.707132339 -0.70611798763
          16.648639679 -27.342605591 -0.31002500653 7.5811476707 -23.867774963 0.45332556963
          13.914725304 -27.045837402 -0.28308805823 0.19298905134 -1.5800797939 -0.015614376403
          -2.2826015949 -15.08259964 0.66230279207 -1.9442104101 -17.686990738 -0.42535215616
          0.19700078666 -5.0491251945 -0.15343496203 3.4962387085 -23.867650986 -0.47851726413
          0.4074934423 -6.9588732719 -0.10789424181 -0.019792018458 -19.338100433 0.64418119192
          0.58032977581 -9.1047496796 0.27078863978 5.1201753616 -23.776475906 0.21151319146
          -0.85940951109 -19.671564102 -0.34723299742 0.61798584461 -9.1799497604 0.14129395783
          3.5245819092 -23.842588425 -0.23693963885 11.144265175 -26.731771469 -0.51271170378
          16.648113251 -27.355951309 8.649094525e-06 0.45035141706 -3.0621142387 0.062794104218
          0 0 0 11.142292976 -26.772510529 -0.25509399176
          0.50778251886 -3.0566356182 0.023806268349 13.913794518 -27.059259415 8.3398999777e-06
          0.46370518208 -21.757923126 -0.59300410748 -1.9219605923 -17.676567078 2.5864756026e-06
          -0.84641546011 -19.664932251 3.6653075313e-06 -0.43861928582 -14.560504913 0.30016165972
          0.1986656487 -1.5875421762 1.2973771391e-06 0.49197191 -21.731988907 -0.29688072205
          3.5381877422 -23.841882706 6.4673481575e-06 -0.48100438714 -14.81844902 0.071587346494
          0.63184458017 -9.2141561508 4.1818084355e-06 1.6355025768 -21.583768845 0.55858266354
          11.142958641 -26.785247803 8.0639865701e-06 -0.442745924 -11.966431618 -0.18855281174
          0.51612985134 -3.0576841831 2.5253339118e-06 8.3453788757 -26.477579117 -0.45389804244
          16.648641586 -27.342605591 0.31004226208 0.50258862972 -21.725028992 4.8334527492e-06
          0.7883720994 -4.6414270401 0.17313398421 0.36551207304 -6.9074006081 -0.20454050601
          -0.46980559826 -14.847166061 4.0462387005e-06 5.1038284302 -23.779146194 0.4229503274
          0 0 0 8.3494338989 -26.515886307 -0.22468730807
          0.85716867447 -4.660946846 0.08622790128 13.914727211 -27.045837402 0.28310471773
          -1.9442089796 -17.686988831 0.42535731196 -0.85940778255 -19.671564102 0.34724029899
          0.19298903644 -1.5800794363 0.015616798773 3.5245842934 -23.842588425 0.23695255816
          0.6179856658 -9.1799488068 -0.14128574729 11.142294884 -26.772510529 0.25511008501
          8.3524560928 -26.525779724 7.8201646829e-06 2.1716370583 -23.962406158 -0.52994185686
          0.84171533585 -11.467524529 0.28294599056 0.8784584403 -4.6708006859 3.5832092635e-06
          0.50778245926 -3.056634903 -0.023801343516 0.89667642117 -11.606789589 0.20911429822
          0.49197393656 -21.731988907 0.296890378 2.1980814934 -23.936548233 -0.26244002581
          -0.48100438714 -14.818447113 -0.071579486132 5.6445331573 -26.266376495 -0.39222306013
          16.654899597 -27.302425385 0.6206740737 0 0 0
          1.0811420679 -6.3934173584 0.28274646401 5.660446167 -26.278217316 -0.1977981478
          13.920284271 -27.005331039 0.56688159704 1.1414293051 -6.4475269318 0.15514197946