<?xml version="1.0"?>
<VTKFile type="UnstructuredGrid" version="0.1" byte_order="LittleEndian" header_type="UInt32" compressor="vtkZLibDataCompressor">
  <UnstructuredGrid>
    <Piece NumberOfPoints="6405" NumberOfCells="4800">
      <PointData>
        <DataArray type="Float32" Name="DISPLACEMENT" NumberOfComponents="3" ComponentName0="X-DISPLACEMENT" ComponentName1="Y-DISPLACEMENT" ComponentName2="Z-DISPLACEMENT" format="ascii" RangeMin="0" RangeMax="492.81733094">
          0 0 0 0 0 0
          2.7698016167 -1.5486638546 -1.3092393875 0 0 0
          1.8243092299 -0.83741825819 -1.0113854408 0 0 0
          2.5148291588 -1.7333767414 -0.52523583174 1.5803484917 -0.99678599834 -0.41248208284
          0 0 0 5.0697827339 -2.8253393173 -1.3993000984
          0 0 0 4.9780759811 -3.0641927719 -0.71983718872
          3.6805868149 -2.2358620167 -1.1359494925 0 0 0
          0 0 0 2.5249505043 -1.7981561422 -9.7707602009e-09
          1.2904740572 -0.51028901339 -0.76100701094 1.5725226402 -1.0315225124 1.5084901106e-09
          3.5887885094 -2.4332869053 -0.57902413607 1.1111828089 -0.65987032652 -0.30874890089
          4.9229412079 -3.1330635548 1.894743562e-08 2.5702698231 -1.7723001242 -0.85473442078
          0 0 0 3.537863493 -2.4985013008 3.5638688445e-08
          2.4926798344 -1.9575345516 -0.43797013164 0 0 0
          7.2612290382 -4.5806918144 -1.3704960346 0 0 0
          1.1054805517 -0.68940520287 5.3084958651e-09 0 0 0
          0 0 0 2.5148291588 -1.7333768606 0.52523583174
          5.4675006866 -3.9897260666 -1.11061728 7.2615451813 -4.7831234932 -0.69634836912
          0.80634486675 -0.33328858018 -0.49350681901 1.5803486109 -0.99678605795 0.41248208284
          5.4685411453 -4.1827769279 -0.56505686045 0.68545210361 -0.48173227906 -0.20342898369
          2.4506366253 -2.0115568638 4.5496609147e-08 4.9780759811 -3.0641930103 0.71983724833
          0 0 0 0 0 0
          1.5953652859 -1.5087968111 -0.57077413797 3.897251606 -3.5352611542 -0.85262352228
          7.2421760559 -4.854080677 7.9908851092e-08 3.5887887478 -2.4332869053 0.57902419567
          3.8857226372 -3.7215151787 -0.43302026391 1.1111828089 -0.65987038612 0.30874893069
          5.4521317482 -4.246304512 9.919172328e-08 1.5346161127 -1.6884467602 -0.29227435589
          0.68273949623 -0.50737839937 6.6968981471e-09 0 0 0
          9.394071579 -6.7123012543 -1.2862635851 0 0 0
          7.214756012 -6.1456851959 -1.0533280373 2.4926798344 -1.9575345516 0.43797022104
          9.4253988266 -6.8887701035 -0.64837753773 2.7698018551 -1.5486638546 1.3092393875
          0 0 0 0 0 0
          1.5058604479 -1.7395961285 5.103251155e-08 3.8702638149 -3.7790827751 1.1218126161e-07
          0.30865997076 -0.28031414747 -0.2286195159 7.242954731 -6.3195781708 -0.53058731556
          1.8243093491 -0.83741825819 1.0113854408 2.4335999489 -3.2403488159 -0.58709317446
          0 0 0 7.2615451813 -4.7831234932 0.69634854794
          0.23309716582 -0.42695596814 -0.097417525947 2.4116363525 -3.418731451 -0.29870170355
          5.4685411453 -4.1827769279 0.56505709887 0.68545216322 -0.48173227906 0.20342899859
          5.2243537903 -5.7033200264 -0.82083719969 0.60612940788 -1.4146045446 -0.29727113247
          9.4237003326 -6.9480485916 1.71456918e-07 5.0697832108 -2.8253395557 1.3993002176
          0 0 0 0 0 0
          5.2352705002 -5.873773098 -0.41271618009 3.6805870533 -2.2358620167 1.1359496117
          7.2450723648 -6.3773570061 1.9153154085e-07 0.55255079269 -1.5849889517 -0.15391008556
          1.2904741764 -0.51028901339 0.76100707054 0.22525690496 -0.45420175791 7.9901667505e-09
          2.397092104 -3.4719510078 1.1840332803e-07 3.8857228756 -3.7215151787 0.43302047253
          1.5346161127 -1.6884467602 0.2922744453 5.233836174 -5.9284405708 2.0516827703e-07
          2.5702700615 -1.7723001242 0.85473453999 0.53143662214 -1.6358600855 5.0778147909e-08
          3.3206603527 -5.4071269035 -0.58850675821 9.4253988266 -6.8887701035 0.64837783575
          7.2612295151 -4.5806918144 1.3704961538 0 0 0
          11.4377985 -9.2043008804 -1.2101649046 0 0 0
          0 0 0 0.98395359516 -3.1152596474 -0.34162086248
          3.3131475449 -5.5685353279 -0.29583567381 11.472236633 -9.3585624695 -0.60596299171
          8.9043521881 -8.660733223 -1.0028034449 7.242954731 -6.3195781708 0.53058767319
          -0.15256164968 -0.37551268935 0.016388360411 0 0 0
          5.4675006866 -3.9897260666 1.1106175184 0.80634498596 -0.33328860998 0.49350684881
          0.9483602643 -3.2787621021 -0.17402425408 0.23309721053 -0.42695596814 0.097417548299
          -0.19058795273 -0.51511698961 0.0057041463442 2.4116363525 -3.418731451 0.29870197177
          8.9347295761 -8.8153190613 -0.50194901228 5.2352705002 -5.873773098 0.41271662712
          3.3080742359 -5.6197047234 2.1082790624e-07 11.476992607 -9.4100914001 2.9285459391e-07
          -0.2838845849 -1.4994550943 -0.062055028975 0.5525509119 -1.5849889517 0.15391018987
          0 0 0 6.5326294899 -8.232960701 -0.79625731707
          1.5953654051 -1.5087968111 0.57077425718 3.8972518444 -3.5352611542 0.8526238203
          0.93369376659 -3.3295173645 1.171027364e-07 8.9420948029 -8.8662843704 3.1328659134e-07
          -0.20583027601 -0.54585534334 7.041815131e-09 -0.34100544453 -1.6529512405 -0.029142240062
          6.5458731651 -8.3843975067 -0.39755198359 9.394071579 -6.7123012543 1.2862639427
          0 0 0 1.4507774115 -5.2633590698 -0.37820369005
          7.2147564888 -6.1456851959 1.0533285141 -0.35843905807 -1.702254653 4.3545405504e-08
          1.424262166 -5.4069290161 -0.18968766928 6.5491929054 -8.4335269928 3.2514245163e-07
          0.30866006017 -0.28031411767 0.2286195755 3.3131475449 -5.5685353279 0.29583609104
          4.2335810661 -7.9368915558 -0.59293574095 11.472237587 -9.3585624695 0.60596358776
          -0.31270393729 -3.1772563457 -0.14483080804 2.4336001873 -3.2403488159 0.58709341288
          0 0 0 0.94836038351 -3.2787621021 0.1740244925
          4.2287211418 -8.078546524 -0.29601326585 -0.19058792293 -0.51511698961 -0.0057041267864
          -0.36926695704 -3.3123531342 -0.069637604058 8.9347295761 -8.8153190613 0.50194960833
          5.2243542671 -5.7033200264 0.82083761692 0.6061295867 -1.4146045446 0.29727125168
          13.385478973 -12.017089844 -1.1471034288 0 0 0
          1.4148285389 -5.4543943405 2.0761382302e-07 10.532673836 -11.49673748 -0.96277743578
          13.415585518 -12.15393734 -0.57312583923 0 0 0
          -0.55008125305 -0.57530015707 0.23703078926 10.558844566 -11.633978844 -0.48084369302
          4.2269563675 -8.1243724823 3.2853782272e-07 -0.5578699708 -0.702722013 0.098258092999
          -0.34100538492 -1.6529512405 0.02914233692 -0.38681855798 -3.3583972454 1.0716380672e-07
          6.545873642 -8.3843975067 0.39755263925 7.8184561729 -11.081422806 -0.7796587944
          -1.0214128494 -1.7557423115 0.12513381243 13.42116642 -12.199322701 4.5163329787e-07
          0 0 0 -1.0933817625 -1.8819890022 0.072586372495
          7.8297753334 -11.21542263 -0.38846608996 10.56640625 -11.679203987 4.6815324595e-07
          -0.57773166895 -0.73322349787 -3.4073119881e-09 3.3206605911 -5.4071269035 0.58850717545
          1.9923101664 -7.7797598839 -0.41398447752 11.4377985 -9.2043008804 1.2101655006
          0 0 0 -0.21954573691 -5.3008785248 -0.22217617929
          1.4242622852 -5.4069290161 0.18968810141 0.98395383358 -3.1152596474 0.3416211307
          8.9043521881 -8.660733223 1.0028040409 -0.15256156027 -0.37551265955 -0.016388313845
          -0.26954367757 -5.4101138115 -0.10679487884 1.9698569775 -7.9021453857 -0.20600631833
          4.2287216187 -8.078546524 0.2960139215 -0.36926680803 -3.3123531342 0.069637827575
          7.833770752 -11.259085655 4.7608548925e-07 -1.1072163582 -1.9255127907 2.8408132735e-08
          5.1688928604 -10.784507751 -0.60147678852 -1.3573561907 -3.4421069622 -0.014207625762
          -0.28388440609 -1.4994550943 0.062055148184 13.415585518 -12.153938293 0.5731267333
          6.5326299667 -8.232960701 0.79625797272 0 0 0
          1.9631203413 -7.9438810349 3.2222806112e-07 -0.2848931849 -5.4502029419 1.9560729925e-07
          5.1648316383 -10.908513069 -0.29957649112 10.558844566 -11.633978844 0.48084464669
          -1.4430298805 -3.5324175358 0.0016653997591 -0.55786991119 -0.702722013 -0.098258092999
          1.4507777691 -5.2633590698 0.37820413709 5.1643161774 -10.949000359 4.7439985451e-07
          7.8297758102 -11.21542263 0.38846704364 -1.0933817625 -1.8819890022 -0.072586305439
          -1.4635512829 -3.5675888062 8.9587423702e-08 15.243227005 -15.116098404 -1.0951378345
          0 0 0 15.26845932 -15.23853302 -0.54694890976
          4.233581543 -7.9368910789 0.5929364562 12.104366302 -14.616087914 -0.93036323786
          -0.31270363927 -3.1772563457 0.14483106136 -0.011197526008 -7.7941908836 -0.2904818356
          -1.0426446199 -0.88293474913 0.44871276617 -0.26954349875 -5.4101138115 0.10679528117
          1.9698572159 -7.9021453857 0.20600697398 0 0 0
          12.126254082 -14.738674164 -0.46448710561 -0.052842896432 -7.8800458908 -0.14036586881
          -1.0479784012 -1.0045901537 0.18058863282 2.5987808704 -10.613901138 -0.44732707739
          -1.5471110344 -5.553882122 -0.13908396661 13.385479927 -12.017089844 1.1471043825
          0 0 0 10.532674789 -11.49673748 0.96277838945
          15.273426056 -15.279089928 6.4768994434e-07 -1.6239148378 -5.6087355614 -0.061906222254
          2.5804774761 -10.718310356 -0.22212155163 -0.55008119345 -0.57530009747 -0.23703075945
          9.0838241577 -14.210741043 -0.7670918107 -1.8576573133 -2.1258058548 0.26477703452
          0 0 0 5.1648321152 -10.908513069 0.29957744479
          -1.4430297613 -3.5324172974 -0.0016652077902 12.132807732 -14.779057503 6.5926553816e-07
          -0.065016523004 -7.9135890007 3.0706451071e-07 9.0935688019 -14.329989433 -0.38217562437
          -1.9619612694 -2.2194712162 0.14287829399 -1.0810220242 -1.0414127111 -1.7966256038e-08
          7.8184571266 -11.081422806 0.77965980768 -1.021412611 -1.7557423115 -0.12513370812
          2.5756440163 -10.754428864 4.6275349064e-07 -1.6437520981 -5.6341099739 1.7718521406e-07
          1.9923106432 -7.7797598839 0.41398513317 9.0972948074 -14.368910789 6.6014786171e-07
          -1.9793183804 -2.2572834492 1.250219217e-08 -0.21954533458 -5.3008785248 0.22217661142
          15.268460274 -15.23853302 0.54695022106 6.1236224174 -13.911391258 -0.6092774272
          0 0 0 -2.4474117756 -3.8272745609 0.053764078766
          6.1212587357 -14.021052361 -0.30340883136 12.126254082 -14.738674164 0.46448844671
          -1.0479784012 -1.0045901537 -0.18058864772 -0.052842650563 -7.8800458908 0.14036649466
          -2.5674393177 -3.8626484871 0.032310530543 5.1688933372 -10.784507751 0.6014778018
          0.29722696543 -10.60469532 -0.34710356593 2.5804777145 -10.718310356 0.22212249041
          -1.3573559523 -3.4421067238 0.01420785673 -1.6239145994 -5.6087355614 0.061906591058
          -1.5976935625 -8.0262947083 -0.24308794737 0.265060395 -10.672487259 -0.16874425113
          6.1214551926 -14.056943893 6.5093411195e-07 9.0935688019 -14.329989433 0.38217693567
          -1.9619611502 -2.2194712162 -0.14287824929 -1.6589496136 -8.0544490814 -0.1150790602
          -2.5942876339 -3.8869957924 7.4817407381e-08 17.023035049 -18.470323563 -1.0519390106
          0 0 0 -1.4587757587 -1.3758943081 0.57170689106
          0.25606781244 -10.700387955 4.4387991238e-07 3.2609381676 -13.726800919 -0.47402569652
          13.62709713 -17.98739624 -0.90316349268 15.243227959 -15.116098404 1.0951391459
          0 0 0 0 0 0
          -1.6743593216 -8.0729312897 2.8811535913e-07 -2.8311934471 -5.9332280159 -0.13085147738
          17.044225693 -18.580970764 -0.52543139458 3.2477667332 -13.817569733 -0.23536835611
          13.645623207 -18.098003387 -0.45097076893 12.104367256 -14.616087914 0.93036460876
          -1.4865146875 -1.4663274288 0.2313478291 -0.011197026819 -7.7941908836 0.29048249125
          -1.0426445007 -0.88293468952 -0.44871273637 -2.9369561672 -5.9250793457 -0.063691318035
          6.1212592125 -14.021052361 0.30341014266 -2.5674390793 -3.8626484871 -0.032310362905
          10.331736565 -17.589666367 -0.75595939159 2.5987813473 -10.613901138 0.44732803106
          -1.5471106768 -5.553882122 0.13908438385 0 0 0
          -2.4984736443 -2.6998381615 0.24164028466 17.048517227 -18.617610931 8.8444852508e-07
          -1.5271862745 -1.5188045502 -2.8947441777e-08 3.2446041107 -13.84912014 6.325339541e-07
          10.340711594 -17.697061539 -0.37677744031 9.0838251114 -14.210741043 0.76709312201
          13.651205063 -18.134437561 8.8767296802e-07 -1.8576570749 -2.1258058548 -0.26477694511
          -2.9635601044 -5.9376411438 1.6473370579e-07 -2.6474950314 -2.7232115269 0.14513830841
          0.26506069303 -10.672487259 0.1687451452 -1.6589493752 -8.0544490814 0.11507964879
          -1.5231100321 -10.807389259 -0.32433336973 10.344148636 -17.732120514 8.7958153472e-07
          -2.6631045341 -2.7594029903 3.7212513071e-09 -1.5662181377 -10.818245888 -0.15673004091
          7.0942130089 -17.286819458 -0.61403864622 0 0 0
          -3.1921377182 -4.4266228676 -0.079206682742 17.044225693 -18.580970764 0.52543318272
          -1.4865146875 -1.4663274288 -0.23134787381 3.2477669716 -13.817569733 0.23536963761
          7.0939421654 -17.38543129 -0.30588167906 6.1236228943 -13.911391258 0.6092787981
          13.645624161 -18.098003387 0.45097255707 0.69150429964 -13.691036224 -0.38918176293
          -3.0280921459 -8.3970899582 -0.28338801861 -2.4474115372 -3.8272745609 -0.053763866425
          -3.3434972763 -4.3780474663 -0.021710975096 -2.9369559288 -5.9250793457 0.063691660762
          0.6692237258 -13.746727943 -0.19015097618 -3.1107358932 -8.361825943 -0.14161896706
          -1.5761649609 -10.83250618 4.2436451508e-07 0.29722759128 -10.60469532 0.34710451961
          10.340711594 -17.697061539 0.37677922845 -1.5976929665 -8.0262947083 0.24308858812
          7.094701767 -17.417701721 8.6091989715e-07 -2.6474947929 -2.7232115269 -0.1451382786
          -3.3715109825 -4.3973603249 7.3190001615e-08 0.6630398035 -13.770385742 6.0849424699e-07
          -3.1329262257 -8.3693304062 2.7965691629e-07 -3.578574419 -6.5151047707 -0.33477205038
          3.9694223404 -17.087625504 -0.49256393313 17.023035049 -18.470323563 1.0519407988
          0 0 0 -1.5662177801 -10.818245888 0.15673092008
          -1.4587756395 -1.3758941889 -0.57170689106 -3.7011897564 -6.4369249344 -0.15283587575
          3.2609388828 -13.726800919 0.47402700782 13.627098083 -17.98739624 0.90316534042
          3.9612803459 -17.168842316 -0.24467462301 18.737634659 -22.054758072 -1.0160956383
          0 0 0 -2.8311929703 -5.9332280159 0.13085187972
          18.75553894 -22.156045914 -0.5075814724 -1.1024340391 -2.0782971382 0.34145539999
          15.108309746 -21.585954666 -0.87993198633 7.0939426422 -17.38543129 0.30588340759
          0 0 0 -3.3434970379 -4.3780474663 0.021711140871
          15.124175072 -21.687105179 -0.43944779038 -1.153128624 -2.0444200039 0.15219689906
          0.66922408342 -13.746727943 0.19015221298 -3.1107356548 -8.361825943 0.1416195482
          10.331737518 -17.589666367 0.75596117973 -3.7299053669 -6.4449973106 1.7102823335e-07
          3.9595284462 -17.19701004 8.3332986378e-07 -2.4984734058 -2.6998381615 -0.24164021015
          -1.3355417252 -13.851683617 -0.37925875187 -1.8335431814 -3.6281020641 -0.11414113641
          11.56432724 -21.194314957 -0.74533218145 -3.0608940125 -11.149902344 -0.39471900463
          18.759334564 -22.189571381 1.163048978e-06 0 0 0
          -1.360701561 -13.854222298 -0.18525522947 15.128990173 -21.720411301 1.1561116935e-06
          -1.1599545479 -2.1015775204 -7.5040960112e-09 11.572903633 -21.292491913 -0.37161871791
          -1.963162303 -3.569829464 0.00059331930242 -3.1170353889 -11.103600502 -0.1981678158
          -1.5231093168 -10.807389259 0.3243342936 -1.3656711578 -13.866129875 5.8700692307e-07
          -3.6759915352 -8.9590883255 -0.52657574415 -3.701189518 -6.4369249344 0.15283624828
          1.1597280502 -17.021633148 -0.41633951664 11.576145172 -21.324554443 1.1361258885e-06
          7.0942134857 -17.286819458 0.61404043436 3.9612805843 -17.168842316 0.24467629194
          -3.134250164 -11.109690666 4.2101402187e-07 -1.9535106421 -3.5918619633 4.849556845e-08
          -3.1921374798 -4.4266228676 0.07920691371 18.755540848 -22.156045914 0.50758379698
          8.0767192841 -20.887866974 -0.61559844017 -3.760935545 -8.8836364746 -0.24803821743
          -2.1243445873 -5.36465168 -0.43988016248 1.1463294029 -17.07068634 -0.20423357189
          0.6915050745 -13.691036224 0.38918307424 -3.0280914307 -8.3970899582 0.28338867426
          0 0 0 -2.2051439285 -5.3357520103 -0.17017263174
          15.124176025 -21.687105179 0.43945008516 -1.1531285048 -2.0444200039 -0.15219689906
          8.0783128738 -20.978240967 -0.30677053332 -3.7860703468 -8.8899097443 2.9471294738e-07
          1.1425420046 -17.091554642 8.0060800656e-07 -1.3607010841 -13.854222298 0.18525643647
          8.0795278549 -21.007818222 1.1056704352e-06 -2.2082903385 -5.336979866 1.3955742872e-07
          11.572903633 -21.292491913 0.37162101269 -1.9631621838 -3.569829464 -0.00059320934815
          -3.1170349121 -11.103600502 0.19816869497 -3.5785739422 -6.5151047707 0.33477246761
          3.9694230556 -17.087625504 0.49256566167 4.7156076431 -20.674406052 -0.50399053097
          18.737636566 -22.054758072 1.0160980225 0 0 0
          -2.0821800232 -7.345500946 -0.57450860739 -1.1024339199 -2.0782971382 -0.34145537019
          15.108311653 -21.585954666 0.87993437052 -3.7609350681 -8.8836364746 0.24803882837
          1.1463298798 -17.07068634 0.20423519611 4.7115373611 -20.749279022 -0.25045752525
          -2.9479231834 -14.137601852 -0.45909631252 -2.1057360172 -7.3935036659 -0.25308507681
          -2.2051436901 -5.3357520103 0.17017292976 8.0783138275 -20.978240967 0.3067727387
          -2.9799432755 -14.09378624 -0.23121522367 -1.0484579802 -17.12792778 -0.40885233879
          -3.5231626034 -11.648596764 -0.63242888451 20.398569107 -25.85020256 -0.98659700155
          0 0 0 16.554265976 -25.393138885 -0.85998415947
          -1.3355408907 -13.851683617 0.37926000357 -1.833542943 -3.6281020641 0.11414129287
          11.564328194 -21.194314957 0.74533450603 -3.5696256161 -11.599334717 -0.30253121257
          -1.0588362217 -17.129417419 -0.20117744803 -3.0608932972 -11.149902344 0.39471995831
          20.413711548 -25.944356918 -0.49284905195 0 0 0
          -2.1048352718 -7.3925390244 2.5248772317e-07 4.7109313011 -20.775133133 1.0660295402e-06
          0.010973324999 -2.4529454708 -0.0090968664736 16.567909241 -25.48707962 -0.42952871323
          0.0098101105541 -2.3663372993 -0.0038046943955 -2.9930129051 -14.100581169 5.8759104604e-07
          12.782516479 -25.006906509 -0.73496776819 -3.5903413296 -11.607869148 4.4452619363e-07
          -1.0598307848 -17.140510559 7.7728225278e-07 20.417129517 -25.975488663 1.4863944671e-06
          0 0 0 0.017862053588 -4.1236300468 -0.0087801236659
          12.790786743 -25.098087311 -0.36653968692 16.572092056 -25.517988205 1.4638881112e-06
          -3.6759908199 -8.9590883255 0.52657645941 1.1597290039 -17.021633148 0.41634118557
          0.010038882494 -2.399679184 5.4733614974e-08 0.018164912239 -4.1377053261 -0.0043944315985
          8.0767202377 -20.887866974 0.61560070515 -2.1243441105 -5.36465168 0.4398804903
          -1.8678109646 -9.6536445618 -0.59302473068 1.6909681559 -20.576631546 -0.43162420392
          -2.1057357788 -7.3935036659 0.25308558345 4.711537838 -20.749279022 0.25045967102
          -1.8539913893 -9.7742948532 -0.27878668904 1.6842834949 -20.623106003 -0.2123760432
          -2.9799427986 -14.09378624 0.23121643066 12.793848991 -25.127880096 1.4292163542e-06
          0.01808408834 -4.1169476509 1.5475505677e-07 9.0666790009 -24.697900772 -0.61450219154
          -3.5696253777 -11.599334717 0.30253213644 -1.0588357449 -17.129415512 0.20117902756
          20.413713455 -25.944356918 0.49285203218 0 0 0
          0.021198723465 -5.7744512558 -0.0074534639716 9.0696725845 -24.782148361 -0.30630549788
          16.567911148 -25.48707962 0.42953166366 0.021612994373 -5.8980798721 -0.0037755486555
          -1.8462332487 -9.7841739655 3.8167729599e-07 1.6824759245 -20.642440796 1.0236554999e-06
          0.0098101599142 -2.3663372993 0.0038048117422 12.790786743 -25.098087311 0.36654257774
          9.0711784363 -24.809766769 1.3846965885e-06 0.021636316553 -5.8595781326 2.6282859267e-07
          4.7156085968 -20.674406052 0.50399267673 -2.709020853 -17.338279724 -0.48431935906
          0.018165003508 -4.1377053261 0.0043947449885 -2.0821795464 -7.345500946 0.57450920343
          -3.1776304245 -14.531620026 -0.66011083126 -2.7236335278 -17.30449295 -0.24433369935
          -2.9479222298 -14.137601852 0.45909756422 -3.1937172413 -14.517546654 -0.31990590692
          -1.8539911509 -9.7742948532 0.2787874639 1.684284091 -20.623106003 0.21237811446
          -1.0484570265 -17.12792778 0.40885397792 -3.5231616497 -11.648596764 0.63242983818
          0.022007478401 -7.6339454651 -0.0068050893024 5.4911084175 -24.47228241 -0.51024764776
          20.398571014 -25.85020256 0.98660004139 0 0 0
          16.554267883 -25.393138885 0.8599871397 0.022191997617 -7.8386306763 -0.0034876263235
          -2.7338507175 -17.313295364 7.7833823298e-07 -1.5899120569 -12.157287598 -0.55252432823
          -0.67658680677 -20.623296738 -0.41986835003 5.489900589 -24.542881012 -0.25361528993
          0.010973474011 -2.4529454708 0.0090970247984 -3.2092158794 -14.530686378 6.161787951e-07
          9.0696735382 -24.782148361 0.3063082993 0.021613098681 -5.8980798721 0.0037760727573
          -0.67687004805 -20.62845993 -0.20760586858 -1.5610405207 -12.321510315 -0.27194604278
          12.782517433 -25.006906509 0.73497068882 0.022215876728 -7.812628746 3.7318585555e-07
          5.4901041985 -24.567209244 1.3321941879e-06 0.017862288281 -4.1236300468 0.0087804459035
          -0.6750099659 -20.639959335 9.9773797047e-07 22.015851974 -29.842445374 -0.96262133121
          0 0 0 -1.5507267714 -12.342535973 5.2929431149e-07
          22.028572083 -29.931446075 -0.48080644011 0 0 0
          -2.7236330509 -17.30449295 0.24433527887 17.97000885 -29.39522171 -0.84279561043
          -1.8678104877 -9.6536455154 0.59302556515 1.6909691095 -20.576631546 0.43162634969
          1.1220092773 -2.0846383572 -0.35540822148 -3.1937167645 -14.517546654 0.31990715861
          17.981704712 -29.483913422 -0.420938164 1.1708468199 -2.0531103611 -0.1578810066
          9.0666799545 -24.697900772 0.61450499296 22.031641006 -29.960802078 1.8508765152e-06
          0.022192107514 -7.8386306763 0.0034883702174 13.986222267 -29.014413834 -0.72469973564
          1.8658460379 -3.6373479366 0.10073852539 5.4899010658 -24.542881012 0.25361797214
          0 0 0 2.2751128674 -24.345258713 -0.4396250248
          0.021329473704 -9.8511657715 -0.0066137681715 0.021198989823 -5.7744512558 0.0074539850466
          1.9956079721 -3.5816075802 -0.0072193965316 13.994153976 -29.100410461 -0.36143600941
          17.985300064 -29.513031006 1.810331014e-06 -0.6768693924 -20.62845993 0.20760789514
          0.021363003179 -10.104429245 -0.0034353756346 2.272718668 -24.39140892 -0.21662698686
          -1.5610402822 -12.321510315 0.27194711566 1.1781077385 -2.1104667187 9.9482136307e-08
          -2.6922216415 -17.611103058 -0.64036643505 13.996953011 -29.128515244 1.758677513e-06
          -2.7090196609 -17.338279724 0.48432099819 1.9857980013 -3.603853941 2.1388174787e-07
          0.021378541365 -10.105045319 4.8922458973e-07 -2.6889019012 -17.628616333 -0.31291937828
          2.2723381519 -24.410043716 1.2794973827e-06 -3.1776294708 -14.531620026 0.66011208296
          22.028572083 -29.931446075 0.4808101356 10.059281349 -28.704730988 -0.61124449968
          -1.270558238 -14.852977753 -0.49239557981 0 0 0
          2.1642780304 -5.3766207695 0.42771625519 -2.365696907 -20.752952576 -0.48404377699
          2.2454504967 -5.3498630524 0.1642011404 10.063188553 -28.784353256 -0.30469533801
          17.981706619 -29.483913422 0.42094179988 -1.2379707098 -15.037118912 -0.2495431006
          -2.3701860905 -20.731937408 -0.24423137307 1.1708468199 -2.0531103611 0.15788120031
          0.02200775966 -7.6339454651 0.0068058236502 5.491109848 -24.47228241 0.51025038958
          -2.6988756657 -17.64663887 8.0384086232e-07 -1.5899114609 -12.157287598 0.55252546072
          -0.67658561468 -20.623296738 0.41987043619 10.064759254 -28.810546875 1.6973344827e-06
          13.99415493 -29.100410461 0.36143952608 -1.2272310257 -15.067315102 6.8775011641e-07
          1.9956079721 -3.5816075802 0.0072198230773 2.2486288548 -5.3513140678 3.2850016396e-07
          0.021363116801 -10.104429245 0.0034363514278 2.2727193832 -24.39140892 0.21662956476
          -2.3789927959 -20.7435112 9.9250007679e-07 -0.23471812904 -24.335573196 -0.42004987597
          0.019554276019 -12.29109478 -0.0066452301107 -0.22952742875 -24.346738815 -0.20825283229
          0.019542409107 -12.561208725 -0.0034664827399 22.015853882 -29.842445374 0.9626250267
          0 0 0 -2.6889014244 -17.628616333 0.31292098761
          2.1254725456 -7.3597521782 0.56258273125 6.2877926826 -28.470319748 -0.51291996241
          2.1491436958 -7.4095954895 0.24725569785 17.97000885 -29.39522171 0.84279924631
          1.1220093966 -2.0846383572 0.3554084301 6.2882881165 -28.537725449 -0.25490429997
          10.063189507 -28.784353256 0.30469873548 -1.2379703522 -15.037118912 0.2495444715
          2.2454507351 -5.3498630524 -0.16420049965 -2.3701853752 -20.731937408 0.24423338473
          -0.22613556683 -24.359247208 1.2467121451e-06 0.019554678351 -12.586112976 6.1362914039e-07
          13.986224174 -29.014413834 0.72470325232 1.8658461571 -3.6373479366 -0.10073810816
          2.2751140594 -24.345258713 0.4396276474 2.1483068466 -7.4088368416 4.3895656177e-07
          0.021329769865 -9.8511657715 0.0066147358157 6.2888703346 -28.560995102 1.6297792627e-06
          23.598409653 -34.021713257 -0.94347566366 0 0 0
          -2.6922206879 -17.611103058 0.64036810398 -0.22952666879 -24.346738815 0.20825533569
          0 0 0 19.359678268 -33.582580566 -0.82796764374
          -0.91955816746 -17.775548935 -0.4306974709 0.019542528316 -12.561208725 0.0034677064978
          1.4740552902 -1.3842731714 -0.58021652699 -2.1082231998 -20.907026291 -0.59907418489
          23.608869553 -34.107219696 -0.47108784318 10.059283257 -28.704730988 0.61124795675
          19.369497299 -33.66765976 -0.41347941756 1.5007448196 -1.4764046669 -0.23479565978
          -1.270557642 -14.852977753 0.49239695072 -0.88798177242 -17.963148117 -0.22211000323
          2.1642782688 -5.3766202927 -0.42771565914 2.9024186134 -28.319545746 -0.44354185462
          2.1491436958 -7.4095954895 -0.24725483358 -2.3656954765 -20.752952576 0.48404583335
          1.9110853672 -9.6698617935 0.58078545332 6.2882885933 -28.537725449 0.25490757823
          -2.0942666531 -20.948425293 -0.2940235734 1.8971749544 -9.7921266556 0.27276721597
          2.9021067619 -28.366012573 -0.21865484118 15.174553871 -33.207523346 -0.71426659822
          23.611532211 -34.135284424 2.2548504148e-06 2.5241394043 -2.7130630016 -0.24932277203
          0 0 0 15.181855202 -33.289779663 -0.35623642802
          2.6732375622 -2.7382121086 -0.14904467762 19.3724823 -33.6954422 2.1928731258e-06
          -1.9393368959 -24.390100479 -0.46968522668 -0.8775510788 -17.999103546 8.5150122686e-07
          -2.0992693901 -20.970760345 1.0004639535e-06 0.016836445779 -14.931630135 -0.0066347350366
          1.5417027473 -1.5293043852 9.553707514e-08 -1.9396818876 -24.38187027 -0.2368209064
          2.9023997784 -28.384197235 1.5644127416e-06 0.016849504784 -15.196184158 -0.0034759573173
          1.8894556761 -9.8022317886 5.4875459909e-07 -0.23471677303 -24.335571289 0.42005243897
          15.184227943 -33.316619873 2.1210200885e-06 0.019554587081 -12.29109478 0.0066464394331
          2.6887001991 -2.7747776508 1.9773496263e-07 11.049736977 -32.899478912 -0.60609990358
          23.60887146 -34.107219696 0.47109234333 -1.9485592842 -24.396280289 1.2244013305e-06
          3.225301981 -4.4453167915 0.072372063994 2.1254725456 -7.3597521782 -0.56258189678
          0.016860965639 -15.236234665 7.430506912e-07 6.2877941132 -28.470319748 0.51292330027
          0 0 0 11.053883553 -32.975521088 -0.30212962627
          3.3768155575 -4.3983998299 0.018294932321 19.369497299 -33.66765976 0.4134837985
          -0.88798141479 -17.963148117 0.22211170197 -2.0942659378 -20.948425293 0.29402557015
          1.5007449389 -1.4764046669 0.23479583859 2.9021074772 -28.366012573 0.21865800023
          1.8971748352 -9.7921266556 -0.27276614308 15.181856155 -33.289779663 0.35624068975
          11.055240631 -33.000682831 2.0397374101e-06 0.26221585274 -28.261646271 -0.41497638822
          1.6303948164 -12.175722122 0.53975582123 3.4047970772 -4.418074131 3.017772201e-07
          2.6732378006 -2.7382121086 0.14904506505 1.6013468504 -12.341370583 0.26562398672
          -1.9396811724 -24.38187027 0.23682336509 0.26869612932 -28.279026031 -0.20622074604
          0.016849629581 -15.196184158 0.0034774376545 7.0983181 -32.659606934 -0.51320040226
          23.598409653 -34.021713257 0.94348019361 0 0 0
          3.6169450283 -6.5395798683 0.32800760865 7.0994105339 -32.724266052 -0.25497427583
          19.359680176 -33.582580566 0.82797205448 3.7394702435 -6.4632053375 0.14950530231
          -0.91955751181 -17.775548935 0.43069916964 0.27222576737 -28.29233551 1.5134718296e-06