<?xml version="1.0"?>
<VTKFile type="UnstructuredGrid" version="0.1" byte_order="LittleEndian" header_type="UInt32" compressor="vtkZLibDataCompressor">
  <UnstructuredGrid>
    <Piece NumberOfPoints="6405" NumberOfCells="4800">
      <PointData>
        <DataArray type="Float32" Name="DISPLACEMENT" NumberOfComponents="3" ComponentName0="X-DISPLACEMENT" ComponentName1="Y-DISPLACEMENT" ComponentName2="Z-DISPLACEMENT" format="ascii" RangeMin="0" RangeMax="306.91252176">
          0 0 0 0 0 0
          2.5260038376 -1.5631744862 -1.1486507654 0 0 0
          1.5233131647 -0.93011248112 -0.82822078466 0 0 0
          2.3210368156 -1.7475039959 -0.45117232203 1.3267512321 -1.0816440582 -0.33760148287
          0 0 0 4.5157361031 -3.0735194683 -1.1521064043
          0 0 0 4.4630885124 -3.2777516842 -0.59128642082
          3.0525152683 -2.5967595577 -0.92087745667 0 0 0
          0 0 0 2.3315532207 -1.8019071817 7.6910424696e-08
          0.94754058123 -0.63148438931 -0.56376159191 1.3218483925 -1.1058770418 5.9081298076e-08
          2.9907934666 -2.7591936588 -0.46918916702 0.79837942123 -0.76903426647 -0.2337462306
          4.4148960114 -3.333003521 3.936515327e-07 1.9433027506 -2.2386276722 -0.68623453379
          0 0 0 2.9524152279 -2.8097379208 3.3573783753e-07
          1.8688358068 -2.379267931 -0.35171952844 0 0 0
          6.2489199638 -5.0364208221 -1.0492405891 0 0 0
          0.79130941629 -0.78676795959 -1.885952372e-08 0 0 0
          0 0 0 2.3210370541 -1.7475041151 0.45117253065
          4.4568476677 -4.5976610184 -0.87452095747 6.2783198357 -5.1754479408 -0.53460353613
          0.30717688799 -0.49267679453 -0.28983831406 1.3267514706 -1.0816440582 0.33760163188
          4.4795680046 -4.726307869 -0.44535776973 0.17799130082 -0.63453799486 -0.13984961808
          1.8387149572 -2.4203162193 2.1142329842e-07 4.4630889893 -3.2777516842 0.59128725529
          0 0 0 0 0 0
          0.82074809074 -2.0399270058 -0.48742491007 3.0041201115 -4.2732992172 -0.7114880681
          6.2627654076 -5.2248849869 9.0871469638e-07 2.9907941818 -2.7591936588 0.46918991208
          2.9953124523 -4.3893451691 -0.36099839211 0.79837977886 -0.76903420687 0.23374627531
          4.4711127281 -4.7686700821 7.9958050492e-07 0.73974728584 -2.162722826 -0.25018391013
          0.16002902389 -0.65286052227 -1.3869822624e-07 0 0 0
          7.791115284 -7.2168741226 -0.90624004602 0 0 0
          5.7723913193 -6.8204021454 -0.7916277647 1.8688366413 -2.3792676926 0.35172000527
          7.8461151123 -7.3075399399 -0.45958063006 2.5260045528 -1.5631746054 1.148651123
          0 0 0 0 0 0
          0.71719557047 -2.2009522915 3.2692714313e-08 2.9854910374 -4.4266242981 6.3490494995e-07
          -0.20609568059 -0.59593951702 -0.11395303905 5.8205471039 -6.9100074768 -0.3991587162
          1.52331388 -0.93011242151 0.82822114229 1.591804862 -4.0446314812 -0.56398081779
          0 0 0 6.2783207893 -5.1754479408 0.53460538387
          -0.30227050185 -0.72427791357 -0.066412217915 1.5682442188 -4.1495652199 -0.28278315067
          4.4795689583 -4.7263073921 0.44535940886 0.17799185216 -0.63453775644 0.13984943926
          4.0653271675 -6.5052108765 -0.6759802103 -0.10367903858 -2.0257742405 -0.32223913074
          7.847694397 -7.3396277428 1.5925467096e-06 4.5157370567 -3.0735192299 1.152107358
          0 0 0 0 0 0
          4.0847096443 -6.5913381577 -0.34076482058 3.0525166988 -2.5967593193 0.92087835073
          5.8284287453 -6.9409508705 1.4292718333e-06 -0.15982681513 -2.1389181614 -0.16339230537
          0.94754129648 -0.63148415089 0.56376183033 -0.31456026435 -0.76230806112 -3.619828135e-07
          1.5586022139 -4.1815390587 4.1220968683e-07 2.995313406 -4.3893446922 0.36099970341
          0.73974835873 -2.1627225876 0.25018405914 4.0862832069 -6.6196188927 1.2146339259e-06
          1.9433043003 -2.2386271954 0.68623518944 -0.16755531728 -2.1778380871 -2.4253938591e-07
          2.4481625557 -6.2692165375 -0.56102287769 7.8461165428 -7.3075399399 0.45958387852
          6.2489218712 -5.0364203453 1.0492426157 0 0 0
          9.156211853 -9.5318231583 -0.78727889061 0 0 0
          0 0 0 0.27431166172 -3.9306712151 -0.39236730337
          2.446855545 -6.3512673378 -0.28213271499 9.2092638016 -9.5878391266 -0.39621421695
          6.9906687737 -9.1719865799 -0.71440464258 5.8205480576 -6.910007 0.39916163683
          -0.94582694769 -0.799515903 0.041557252407 0 0 0
          4.456849575 -4.5976605415 0.87452274561 0.30717781186 -0.4926763773 0.28983840346
          0.2464234978 -4.0339121819 -0.20329396427 -0.30226972699 -0.72427761555 0.066411606967
          -1.0691940784 -0.90689313412 -0.014598170295 1.5682456493 -4.149564743 0.28278401494
          7.0379962921 -9.2313318253 -0.35758787394 4.0847110748 -6.5913376808 0.34076729417
          2.4457216263 -6.376142025 9.3758421826e-07 9.2177257538 -9.6083106995 2.4292237413e-06
          -1.0960236788 -2.1823368073 -0.23861517012 -0.15982560813 -2.1389176846 0.16339185834
          0 0 0 5.0888886452 -8.8742170334 -0.63588041067
          0.82074993849 -2.0399262905 0.4874252677 3.0041222572 -4.2732987404 0.71148949862
          0.24000641704 -4.0624694824 1.1479319539e-07 7.0502252579 -9.2518835068 2.2114929834e-06
          -1.0878463984 -0.9464418292 -7.6774171021e-07 -1.1650965214 -2.2606625557 -0.1100448519
          5.1126694679 -8.9329242706 -0.31874275208 7.7911176682 -7.2168731689 0.90624338388
          0 0 0 0.79644221067 -6.1110429764 -0.43421798944
          5.7723937035 -6.8204011917 0.79163074493 -1.1671034098 -2.3000495434 -7.4995045907e-07
          0.77356481552 -6.1902651787 -0.22458663583 5.1196260452 -8.9523744583 1.9376573164e-06
          -0.20609456301 -0.59593880177 0.11395275593 2.4468569756 -6.3512663841 0.28213462234
          3.2876832485 -8.6467914581 -0.55890715122 9.2092647552 -9.5878391266 0.39621913433
          -0.89536893368 -4.0306096077 -0.34447580576 1.5918073654 -4.0446305275 0.56398177147
          0 0 0 0.2464248836 -4.033911705 0.20329420269
          3.2892332077 -8.7002658844 -0.28140375018 -1.0691930056 -0.90689271688 0.014596739784
          -0.94404029846 -4.0925378799 -0.15913508832 7.0379977226 -9.2313318253 0.35759234428
          4.0653300285 -6.5052099228 0.6759827733 -0.10367699713 -2.0257735252 0.32223880291
          10.368582726 -11.919483185 -0.69802719355 0 0 0
          0.77169907093 -6.2133574486 5.8337889186e-07 8.1068887711 -11.597671509 -0.65410757065
          10.41112709 -11.953684807 -0.35017204285 0 0 0
          -1.957398653 -1.0183975697 0.05754910782 8.1454391479 -11.63547802 -0.32613566518
          3.2927119732 -8.7182807922 1.6079384295e-06 -2.1182303429 -1.0605130196 0.0079272892326
          -1.1650950909 -2.2606620789 0.11004339904 -0.94439554214 -4.1272945404 -4.1778270088e-07
          5.1126708984 -8.9329242706 0.31874668598 6.0582551956 -11.335460663 -0.60635977983
          -2.0770964622 -2.4343323708 -0.28037589788 10.420550346 -11.966618538 3.410002364e-06
          0 0 0 -2.1673243046 -2.4401993752 -0.117247805
          6.0812034607 -11.371906281 -0.30241334438 8.1569595337 -11.649028778 3.1404604215e-06
          -2.1100952625 -1.1130135059 -1.5238372271e-06 2.4481654167 -6.2692155838 0.56102484465
          1.4344789982 -8.4728431702 -0.50083422661 9.1562147141 -9.5318222046 0.7872838974
          0 0 0 -0.51928526163 -6.1477227211 -0.42802092433
          0.77356642485 -6.1902647018 0.22458784282 0.27431422472 -3.930670023 0.39236757159
          6.9906721115 -9.1719856262 0.71440917253 -0.94582545757 -0.79951477051 -0.041558384895
          -0.55643236637 -6.1851458549 -0.20422814786 1.4153894186 -8.5161895752 -0.25169348717
          3.2892351151 -8.7002649307 0.28140702844 -0.94403862953 -4.0925374031 0.15913429856
          6.0892343521 -11.384848595 2.8173051305e-06 -2.1670050621 -2.4704287052 -1.5605635326e-06
          4.1292777061 -11.14338398 -0.56694144011 -1.8538113832 -4.2922039032 -0.42420658469
          -1.0960211754 -2.1823356152 0.23861385882 10.411128998 -11.953683853 0.35017889738
          5.0888915062 -8.8742160797 0.63588446379 0 0 0
          1.4170466661 -8.5327949524 1.2276109373e-06 -0.55158525705 -6.2135181427 6.1096251613e-08
          4.13722229 -11.171567917 -0.28347012401 8.1454410553 -11.635477066 0.32614198327
          -1.9187897444 -4.2777123451 -0.18726322055 -2.1182289124 -1.0605124235 -0.00793022383
          0.79644525051 -6.1110420227 0.43421936035 4.142677784 -11.184110641 2.4508544811e-06
          6.081205368 -11.371905327 0.30241903663 -2.1673223972 -2.4401988983 0.11724479496
          -1.9144443274 -4.3022141457 -1.2021683915e-06 11.460731506 -14.334524155 -0.63728272915
          0 0 0 11.491495132 -14.357486725 -0.31932404637
          3.2876868248 -8.6467905045 0.55891060829 9.1321744919 -14.041327477 -0.60830414295
          -0.89536589384 -4.0306081772 0.34447515011 0.00059150083689 -8.4384536743 -0.50983130932
          -0.6156206131 -1.5050216913 0.32612147927 -0.55643039942 -6.1851453781 0.20422837138
          1.4153914452 -8.5161886215 0.25169605017 0 0 0
          9.1614332199 -14.067595482 -0.30281612277 -0.013899886049 -8.4541168213 -0.24905268848
          -0.59917199612 -1.5625251532 0.11151844263 2.2202956676 -10.98347187 -0.5586900115
          -1.4933087826 -6.377076149 -0.53136628866 10.36858654 -11.919482231 0.69803410769
          0 0 0 8.1068925858 -11.597670555 0.65411400795
          11.5 -14.366477013 4.5232077355e-06 -1.5319523811 -6.3458786011 -0.24678206444
          2.2190289497 -10.998846054 -0.27442085743 -1.9573967457 -1.0183959007 -0.057551674545
          6.9601182938 -13.809626579 -0.57578456402 -1.5213572979 -2.7748053074 0.16772046685
          0 0 0 4.1372246742 -11.171566963 0.28347510099
          -1.9187877178 -4.2777118683 0.18726092577 9.1706075668 -14.077116966 4.201988304e-06
          -0.0040187449194 -8.4712324142 7.5110330044e-07 6.9834318161 -13.833929062 -0.28650730848
          -1.6255649328 -2.8673992157 0.023824360222 -0.62054264545 -1.5790170431 -8.6876332261e-07
          6.0582590103 -11.335459709 0.60636556149 -2.0770933628 -2.4343309402 0.28037303686
          2.2238402367 -11.008644104 2.0573356778e-06 -1.5198016167 -6.3649392128 -6.4963273871e-07
          1.4344828129 -8.4728422165 0.50083696842 6.9905791283 -13.84250164 3.8341718209e-06
          -1.580725193 -2.859937191 -1.3086558965e-06 -0.51928168535 -6.1477212906 0.42802134156
          11.49149704 -14.357486725 0.31933310628 4.9337024689 -13.658360481 -0.55133956671
          0 0 0 -2.3833992481 -4.6291146278 -0.3761177361
          4.9520087242 -13.673698425 -0.27515202761 9.1614351273 -14.067595482 0.30282455683
          -0.59917163849 -1.5625247955 -0.11152007431 -0.013897518627 -8.4541158676 0.2490542829
          -2.4621744156 -4.6430869102 -0.20842273533 4.1292815208 -11.143382072 0.5669465661
          0.64148789644 -10.908158302 -0.54849481583 2.2190313339 -10.9988451 0.27442502975
          -1.853807807 -4.2922019958 0.42420443892 -1.5319499969 -6.3458776474 0.24678088725
          -1.0372322798 -8.6403923035 -0.603472054 0.64830327034 -10.9145298 -0.27379995584
          4.957089901 -13.681268692 3.4356528431e-06 6.9834337234 -13.833929062 0.28651499748
          -1.6255643368 -2.8673989773 -0.023826930672 -1.0449289083 -8.6088705063 -0.28675270081
          -2.3964881897 -4.6399188042 -1.7435537529e-06 12.477520943 -16.752513885 -0.60272949934
          0 0 0 -0.43442061543 -1.7119640112 0.25901868939
          0.65919876099 -10.920648575 1.6170286017e-06 3.0328280926 -13.547197342 -0.55285143852
          10.091883659 -16.472793579 -0.57477247715 11.460736275 -14.334522247 0.63729190826
          0 0 0 0 0 0
          -1.0276430845 -8.6221208572 1.1087180241e-07 -2.2624368668 -6.7332167625 -0.64652603865
          12.496994019 -16.77366066 -0.30147272348 3.050536871 -13.551912308 -0.27263784409
          10.111952782 -16.496982574 -0.28583934903 9.1321783066 -14.041325569 0.60831266642
          -0.41806486249 -1.7175445557 0.11419001967 0.0005957543035 -8.438451767 0.50983309746
          -0.61562049389 -1.5050213337 -0.32612264156 -2.2977342606 -6.6637678146 -0.3184723556
          4.9520111084 -13.673698425 0.27515894175 -2.4621729851 -4.6430859566 0.20841936767
          7.7999668121 -16.254163742 -0.54111588001 2.2203001976 -10.983470917 0.55869436264
          -1.4933047295 -6.3770747185 0.53136527538 0 0 0
          -0.87146180868 -3.2632591724 0.17639401555 12.503957748 -16.781536102 5.7469042076e-06
          -0.42321297526 -1.7368985415 -4.6027875555e-07 3.0566978455 -13.556988716 3.0218418487e-06
          7.8217177391 -16.276473999 -0.2686547935 6.9601221085 -13.809624672 0.57579237223
          10.1185112 -16.505090714 5.3715798458e-06 -1.5213567019 -2.774805069 -0.16772244871
          -2.2837922573 -6.6615366936 -1.4068640439e-06 -0.91693651676 -3.3087124825 0.099748551846
          0.64830589294 -10.9145298 0.2738032341 -1.0449265242 -8.6088695526 0.28675299883
          -0.5195287466 -11.076514244 -0.62628549337 7.8275380135 -16.282886505 4.9586988098e-06
          -0.92139965296 -3.3296504021 -7.1201372975e-07 -0.50768274069 -11.0502491 -0.30144944787
          5.6549344063 -16.13466835 -0.51161837578 0 0 0
          -1.2643156052 -4.8599863052 0.066424027085 12.496995926 -16.773658752 0.30148422718
          -0.41806459427 -1.7175444365 -0.11419080198 3.0505394936 -13.551912308 0.27264392376
          5.6778144836 -16.146734238 -0.25526788831 4.9337067604 -13.658358574 0.55134660006
          10.111954689 -16.496982574 0.28585010767 1.3127099276 -13.48253727 -0.55097472668
          -1.8621299267 -9.012134552 -0.71849304438 -2.3833968639 -4.6291131973 0.3761151433
          -1.3360003233 -4.9745020866 0.0078738871962 -2.2977318764 -6.663766861 0.31846961379
          1.3276234865 -13.478325844 -0.27565839887 -1.8652817011 -8.9467658997 -0.35159215331
          -0.48842206597 -11.059998512 9.8295913631e-07 0.64149260521 -10.908157349 0.54849815369
          7.8217201233 -16.276473999 0.26866474748 -1.037227869 -8.6403903961 0.60347241163
          5.6821808815 -16.150899887 4.5155311454e-06 -0.91693592072 -3.3087124825 -0.099749840796
          -1.3570868969 -4.9844884872 -7.5887794537e-07 1.3374043703 -13.479816437 2.547797294e-06
          -1.8483798504 -8.9451665878 -6.4610696882e-07 -1.6336625814 -6.7172913551 -0.032075356692
          3.7285466194 -16.096448898 -0.509732306 12.477525711 -16.752511978 0.60274106264
          0 0 0 -0.50768017769 -11.050248146 0.30145144463
          -0.43442040682 -1.711964488 -0.25901916623 -1.7114903927 -6.8704319 -0.079300351441
          3.0328330994 -13.547195435 0.5528575182 10.091888428 -16.472791672 0.57478326559
          3.752669096 -16.094299316 -0.25464105606 13.4634552 -19.18129921 -0.59000968933
          0 0 0 -2.2624325752 -6.7332148552 0.64652347565
          13.47266674 -19.20684433 -0.29443502426 -0.27489194274 -1.7796936035 0.19072075188
          11.01636982 -18.902238846 -0.55432027578 5.6778168678 -16.146734238 0.25527694821
          0 0 0 -1.3359993696 -4.9745020866 -0.0078753232956
          11.027041435 -18.930410385 -0.27553391457 -0.24157184362 -1.766510129 0.083358377218
          1.3276262283 -13.47832489 0.27566349506 -1.8652791977 -8.946764946 0.35159093142
          7.7999711037 -16.254161835 0.54112589359 -1.7188091278 -6.8744478226 -5.4347748346e-07
          3.7586364746 -16.097431183 4.0404092942e-06 -0.87146097422 -3.2632596493 -0.17639492452
          0.037277366966 -13.620007515 -0.62419271469 -0.518437922 -3.4025857449 0.20037451386
          8.5979757309 -18.677062988 -0.510674119 -1.3984125853 -11.446772575 -0.74111807346
          13.477568626 -19.215539932 7.0501464506e-06 0 0 0
          0.061493296176 -13.591897964 -0.30302515626 11.031106949 -18.938989639 6.6197917477e-06
          -0.24638973176 -1.7751102448 -7.7493202966e-09 8.6136274338 -18.70334053 -0.25336676836
          -0.52560889721 -3.4183402061 0.10632552207 -1.3788558245 -11.387326241 -0.36042153835
          -0.51952403784 -11.07651329 0.62628751993 0.079385116696 -13.596684456 1.8883732764e-06
          -2.0556163788 -9.1219730377 -0.23709642887 -1.711489439 -6.8704314232 0.079299286008
          1.9736784697 -16.091789246 -0.54442000389 8.6181240082 -18.709634781 6.1644664129e-06
          5.6549391747 -16.134666443 0.51162749529 3.7526717186 -16.094299316 0.25464916229
          -1.3588354588 -11.387254715 1.9400687279e-07 -0.52389508486 -3.4311954975 1.4435717333e-07
          -1.2643141747 -4.8599867821 -0.066424928606 13.472668648 -19.206842422 0.29444912076
          6.283074379 -18.560443878 -0.47015812993 -2.134642601 -9.2540712357 -0.22117178142
          -0.78123897314 -5.0579390526 0.16834019125 1.9947464466 -16.074697495 -0.26827979088
          1.3127148151 -13.482536316 0.55097985268 -1.8621253967 -9.0121326447 0.71849191189
          0 0 0 -0.80921059847 -5.1202135086 0.091398507357
          11.027043343 -18.930410385 0.2755471468 -0.24157162011 -1.7665102482 -0.083358332515
          6.3024291992 -18.574302673 -0.23465439677 -2.0496702194 -9.1984729767 -4.9104909294e-07
          2.0042476654 -16.075286865 3.4941101603e-06 0.061495997012 -13.591897011 0.30302897096
          6.3062086105 -18.577363968 5.6790331655e-06 -0.81453537941 -5.1472840309 3.934496533e-07
          8.6136293411 -18.703338623 0.25337910652 -0.52560842037 -3.4183404446 -0.10632516444
          -1.3788532019 -11.387326241 0.36042198539 -1.6336610317 -6.7172913551 0.032074715942
          3.7285516262 -16.096446991 0.50974047184 4.2697873116 -18.580854416 -0.46596688032
          13.463459015 -19.181297302 0.59002381563 0 0 0
          -1.0609788895 -6.9532341957 0.1297506094 -0.2748914361 -1.7796941996 -0.19072049856
          11.016374588 -18.902236938 0.55433356762 -2.1346414089 -9.2540712357 0.22117093205
          1.9947493076 -16.074695587 0.26828682423 4.2935414314 -18.574403763 -0.23467452824
          -0.9099984169 -13.964609146 -0.72732031345 -1.0926574469 -7.0613627434 0.067828841507
          -0.80921000242 -5.1202135086 -0.09139765054 6.3024315834 -18.574302673 0.23466578126
          -0.87388795614 -13.913372993 -0.35303896666 0.61135268211 -16.200895309 -0.60165941715
          -2.1849179268 -11.878200531 -0.79808175564 14.448793411 -21.648780823 -0.59266984463
          0 0 0 11.930581093 -21.365356445 -0.54789274931
          0.03728236258 -13.620005608 0.62419652939 -0.51843702793 -3.4025866985 -0.20037394762
          8.5979804993 -18.677061081 0.51068645716 -2.1627378464 -11.826259613 -0.41018211842
          0.6416323185 -16.171899796 -0.29524216056 -1.3984078169 -11.446770668 0.7411184907
          14.449749947 -21.680707932 -0.29541683197 0 0 0
          -1.1001636982 -7.0933866501 6.7017157335e-07 4.2997832298 -18.577459335 5.1423062359e-06
          -0.15572413802 -1.7620593309 0.13170419633 11.932790756 -21.399110794 -0.27252408862
          -0.11998727918 -1.742194891 0.05643832311 -0.85503900051 -13.911744118 1.0940747188e-06
          9.3896226883 -21.123311996 -0.49638089538 -2.1439306736 -11.809725761 -5.8222252619e-07
          0.65618282557 -16.170066833 2.8646466035e-06 14.452349663 -21.691143036 8.3940349214e-06
          0 0 0 -0.26391434669 -3.395036459 0.17042680085
          9.3970422745 -21.155515671 -0.24620187283 11.93462944 -21.409332275 7.9105457189e-06
          -2.0556147099 -9.1219730377 0.237096861 1.9736837149 -16.091787338 0.54442721605
          -0.11881062388 -1.7454369068 4.6752668936e-07 -0.2414689213 -3.3898220062 0.089965544641
          6.2830791473 -18.560441971 0.47016954422 -0.78123784065 -5.0579404831 -0.16833913326
          -1.2836642265 -9.1800661087 0.098587200046 2.586356163 -18.649694443 -0.51931583881
          -1.0926567316 -7.0613627434 -0.067827418447 4.2935438156 -18.574403763 0.23468485475
          -1.3173652887 -9.3284053802 0.03644233197 2.613622427 -18.628440857 -0.25522834063
          -0.87388521433 -13.91337204 0.35304120183 9.400557518 -21.163568497 7.4199510891e-06
          -0.2343685329 -3.3961343765 1.0678239732e-06 6.8788757324 -20.96512413 -0.44604632258
          -2.1627349854 -11.826259613 0.41018098593 0.64163517952 -16.171899796 0.29524794221
          14.449752808 -21.680706024 0.29543361068 0 0 0
          -0.35579133034 -5.0681538582 0.19216166437 6.8912611008 -20.985177994 -0.22193863988
          11.932793617 -21.399110794 0.27253988385 -0.34297335148 -5.0936026573 0.10199778527
          -1.3521412611 -9.3639030457 8.9829131866e-07 2.6259241104 -18.629920959 4.5830033741e-06
          -0.11998710781 -1.7421950102 -0.056437395513 9.3970441818 -21.155515671 0.24621671438
          6.8950572014 -20.988983154 6.9192624323e-06 -0.33944791555 -5.1092877388 1.682188099e-06
          4.2697925568 -18.580852509 0.46597731113 -0.41589072347 -16.494102478 -0.6793281436
          -0.24146857858 -3.3898220062 -0.089963406324 -1.0609775782 -6.9532351494 -0.12974895537
          -1.7410670519 -14.394967079 -0.79262149334 -0.3754812479 -16.456003189 -0.33059510589
          -0.90999341011 -13.964607239 0.72732257843 -1.6963454485 -14.346690178 -0.39614647627
          -1.3173643351 -9.3284053802 -0.036440499127 2.6136257648 -18.628440857 0.25523754954
          0.61135798693 -16.200893402 0.60166525841 -2.1849133968 -11.878198624 0.79808074236
          -0.43048098683 -6.9433407784 0.21525391936 4.6992521286 -20.971300125 -0.43185406923
          14.44879818 -21.648778915 0.59268659353 0 0 0
          11.930585861 -21.365354538 0.54790854454 -0.42223769426 -7.0033144951 0.11325044185
          -0.36089554429 -16.452222824 2.1088010271e-06 -1.5062199831 -11.570356369 0.15466856956
          1.1810436249 -18.74574852 -0.56590282917 4.7200708389 -20.963487625 -0.21766902506
          -0.15572337806 -1.762059927 -0.13170313835 -1.6818820238 -14.334048271 2.6616086757e-07
          6.891263485 -20.985177994 0.22195246816 -0.34297293425 -5.0936026573 -0.10199445486
          1.2092067003 -18.718439102 -0.28057464957 -1.6191686392 -11.802780151 -0.052880767733
          9.3896274567 -21.123310089 0.49639573693 -0.42386120558 -7.0323185921 2.220009037e-06
          4.7259674072 -20.965143204 6.3790976128e-06 -0.26391324401 -3.3950374126 -0.17042465508
          1.2219272852 -18.71462822 3.9756132537e-06 15.447935104 -24.181215286 -0.60377120972
          0 0 0 -1.5983983278 -11.811232567 9.7250085673e-07
          15.443597794 -24.21878624 -0.30113947392 0 0 0
          -0.37547841668 -16.456003189 0.33059933782 12.849254608 -23.892269135 -0.55236893892
          -1.2836625576 -9.1800670624 -0.098585307598 2.5863618851 -18.649692535 0.51932513714
          -0.034432932734 -1.6824923754 0.072003848851 -1.6963427067 -14.346689224 0.39614704251
          12.845798492 -23.930761337 -0.27526643872 -0.00021134848066 -1.6587353945 0.029419336468
          6.878880024 -20.965122223 0.44606015086 15.444209099 -24.23110199 9.7342881418e-06
          -0.42223721743 -7.0033144951 -0.11324606091 10.20730114 -23.633590698 -0.49811211228
          0.0082140676677 -3.2447195053 0.13282963634 4.7200737 -20.963487625 0.21768179536
          0 0 0 3.1043198109 -21.078123093 -0.4897826612
          -0.49211773276 -9.0822544098 0.2464543283 -0.35579013824 -5.0681552887 -0.19215841591
          0.050646439195 -3.2320683002 0.066539615393 10.208323479 -23.671474457 -0.24710930884
          12.845879555 -23.943023682 9.1997399068e-06 1.2092096806 -18.718439102 0.28058260679
          -0.49527874589 -9.1876993179 0.12719425559 3.1314575672 -21.052930832 -0.2415882498
          -1.6191675663 -11.802779198 0.052882637829 0.0044684628956 -1.6603502035 9.6346730061e-07
          -1.2721167803 -16.889347076 -0.7342569828 10.210477829 -23.682401657 8.6767486209e-06
          -0.41588544846 -16.494100571 0.67933237553 0.06288870424 -3.2337985039 2.0090835733e-06
          -0.49559146166 -9.2320461273 2.6376010283e-06 -1.2283685207 -16.852897644 -0.36236032844
          3.1438312531 -21.051778793 5.7846186792e-06 -1.7410620451 -14.394965172 0.79262202978
          15.443600655 -24.21878624 0.30115893483 7.5474824905 -23.419139862 -0.44230139256
          -2.1861045361 -14.724928856 -0.56428551674 0 0 0
          0.097684822977 -4.8523416519 0.19235756993 0.072437472641 -18.961051941 -0.61557126045
          0.13965235651 -4.8650584221 0.099736303091 7.5546898842 -23.449396133 -0.21845403314
          12.8458004 -23.930761337 0.27528482676 -2.2085773945 -14.793091774 -0.33638551831
          0.10580654442 -18.933322906 -0.30484104156 -0.0002112655784 -1.6587353945 -0.029417488724
          -0.43047985435 -6.9433422089 -0.21524970233 4.6992573738 -20.971298218 0.43186688423
          -1.2151142359 -16.843425751 1.2753654346e-06 -1.5062185526 -11.570356369 -0.15466633439
          1.1810492277 -18.745746613 0.56591075659 7.5587921143 -23.456331253 8.1657308328e-06
          10.208325386 -23.671472549 0.24712663889 -2.1298742294 -14.746749878 1.083014709e-07
          0.050646629184 -3.2320680618 -0.066535666585 0.15120267868 -4.8743252754 2.9802963581e-06
          -0.49527829885 -9.1876993179 -0.12718905509 3.1314606667 -21.052930832 0.241599828
          0.1176315099 -18.928468704 3.2325169741e-06 1.7268825769 -21.174079895 -0.53967052698
          -0.55799508095 -11.581971169 0.23203580081 1.7521779537 -21.145406723 -0.26717478037
          -0.5562800169 -11.728592873 0.12879908085 15.447939873 -24.181213379 0.60379058123
          0 0 0 -1.2283656597 -16.852897644 0.36236289144
          0.23583716154 -6.6500549316 0.24681465328 5.1247792244 -23.337184906 -0.40789052844
          0.27590855956 -6.6950960159 0.12995313108 12.849259377 -23.892267227 0.55238729715
          -0.034431945533 -1.6824928522 -0.072001971304 5.1436362267 -23.335573196 -0.20410135388
          7.5546917915 -23.449394226 0.21847033501 -2.2085757256 -14.79309082 0.33638575673
          0.13965255022 -4.8650579453 -0.099730476737 0.10580947995 -18.933322906 0.30484747887
          1.7630304098 -21.138618469 5.1143651945e-06 -0.5733987093 -11.785003662 2.9232394354e-06
          10.207304955 -23.633588791 0.49812939763 0.0082152998075 -3.2447202206 -0.13282589614
          3.1043257713 -21.078121185 0.4897942543 0.28561836481 -6.7133712769 3.7621118736e-06
          -0.49211671948 -9.0822553635 -0.24644932151 5.1483244896 -23.337656021 7.6470960266e-06
          16.466117859 -26.793977737 -0.61795443296 0 0 0
          -1.2721114159 -16.889345169 0.7342595458 1.7521810532 -21.145404816 0.26718503237
          0 0 0 13.781460762 -26.498434067 -0.56179797649
          -1.9317940474 -17.365064621 -0.81005567312 -0.55627948046 -11.728591919 -0.128793329
          0.12146817148 -1.5179750919 0.0035314331762 -0.81614595652 -19.300523758 -0.67053771019
          16.45946312 -26.835977554 -0.30868864059 7.5474872589 -23.419137955 0.44231763482
          13.775556564 -26.540842056 -0.28060126305 0.15430264175 -1.4963014126 -0.00022434709535
          -2.1861014366 -14.724927902 0.56428700686 -1.8955183029 -17.317134857 -0.39888244867
          0.097685933113 -4.8523421288 -0.19235216081 3.572707653 -23.427593231 -0.46279540658
          0.27590864897 -6.6950955391 -0.12994581461 0.072443000972 -18.961050034 0.61557769775
          0.4185039103 -8.7758989334 0.30938655138 5.1436390877 -23.335571289 0.20411664248
          -0.78019976616 -19.269733429 -0.33059582114 0.45295289159 -8.8426570892 0.16305918992
          3.6009960175 -23.403522491 -0.22913780808 11.053123474 -26.226205826 -0.50514513254
          16.45885849 -26.849948883 1.102517308e-05 0.36761328578 -2.9226446152 0.098721943796
          0 0 0 11.051054955 -26.269332886 -0.25126522779
          0.42529687285 -2.9130320549 0.042787853628 13.774542809 -26.554948807 1.0441598533e-05
          0.54914140701 -21.319936752 -0.56951570511 -1.8756229877 -17.307266235 4.373008835e-07
          -0.76706582308 -19.264427185 2.3742477424e-06 -0.54079788923 -14.165509224 0.35984155536
          0.15987549722 -1.5018689632 1.4995803213e-06 0.57540076971 -21.294956207 -0.28626185656
          3.6144976616 -23.403133392 7.0155410867e-06 -0.57966887951 -14.403466225 0.096017919481
          0.46128287911 -8.8729925156 4.3677259782e-06 1.7268884182 -21.174077988 0.53968077898
          11.051747322 -26.282823563 9.887030501e-06 -0.55799400806 -11.581972122 -0.23203034699
          0.43463853002 -2.9129459858 2.9109232855e-06 8.299197197 -25.971860886 -0.44197559357
          16.459465027 -26.835977554 0.30871066451 0.58472919464 -21.286663055 4.3524528337e-06
          0.66353189945 -4.4402017593 0.20477718115 0.2358379662 -6.6500554085 -0.24680785835
          -0.57674831152 -14.443245888 3.2824627851e-06 5.1247844696 -23.337182999 0.40790578723
          0 0 0 8.3038778305 -26.013433456 -0.21862407029
          0.7298926115 -4.452334404 0.10161678493 13.775558472 -26.540840149 0.28062212467
          -1.8955155611 -17.317134857 0.39888328314 -0.78019684553 -19.269731522 0.33060058951
          0.15430259705 -1.496301055 0.00022713432554 3.6009993553 -23.403522491 0.22915185988
          0.45295277238 -8.8426561356 -0.16305063665 11.051056862 -26.269332886 0.25128495693
          8.3072309494 -26.024000168 9.3645521702e-06 2.2664504051 -23.508270264 -0.51238906384
          0.63566160202 -11.075715065 0.34559839964 0.75011861324 -4.4611926079 4.1460798457e-06
          0.42529681325 -2.9130315781 -0.042782191187 0.67104798555 -11.192837715 0.21361777186
          0.57540380955 -21.294956207 0.28627058864 2.2914390564 -23.483314514 -0.25435632467
          -0.57966852188 -14.403464317 -0.096011564136 5.6349663734 -25.757329941 -0.37142521143
          16.466123581 -26.79397583 0.61797636747 0 0 0
          0.92819494009 -6.122982502 0.31353473663 5.6538376808 -25.771123886 -0.18836244941
          13.781464577 -26.498432159 0.56181871891 0.98283034563 -6.1648602486 0.16649276018