<?xml version="1.0"?>
<VTKFile type="UnstructuredGrid" version="0.1" byte_order="LittleEndian" header_type="UInt32" compressor="vtkZLibDataCompressor">
  <UnstructuredGrid>
    <Piece NumberOfPoints="6405" NumberOfCells="4800">
      <PointData>
        <DataArray type="Float32" Name="DISPLACEMENT" NumberOfComponents="3" ComponentName0="X-DISPLACEMENT" ComponentName1="Y-DISPLACEMENT" ComponentName2="Z-DISPLACEMENT" format="ascii" RangeMin="0" RangeMax="273.49197855">
          0 0 0 0 0 0
          2.3474531174 -1.4970817566 -1.0710510015 0 0 0
          1.4436568022 -0.92035067081 -0.79695278406 0 0 0
          2.1553771496 -1.6580156088 -0.4222407341 1.2585914135 -1.0505386591 -0.32509583235
          0 0 0 4.174890995 -2.8473477364 -1.0722702742
          0 0 0 4.1274652481 -3.0283420086 -0.55271756649
          2.8848292828 -2.4044737816 -0.87486726046 0 0 0
          0 0 0 2.1646831036 -1.7081737518 6.5342197786e-07
          0.98957633972 -0.65734016895 -0.58347219229 1.2546831369 -1.0735561848 3.0453352906e-07
          2.8312687874 -2.5481350422 -0.44608771801 0.85024368763 -0.773393929 -0.23973749578
          4.0831537247 -3.0783417225 1.6299494519e-06 1.9720180035 -2.0709109306 -0.66700422764
          0 0 0 2.7950952053 -2.5940742493 9.6572728125e-07
          1.9135342836 -2.1985054016 -0.34156158566 0 0 0
          5.7844119072 -4.5653862953 -0.98005491495 0 0 0
          0.84560567141 -0.791190207 -1.4960700412e-07 0 0 0
          0 0 0 2.155377388 -1.6580150127 0.4222420752
          4.213265419 -4.1477026939 -0.82046538591 5.8131046295 -4.6918749809 -0.49979776144
          0.50318843126 -0.50821429491 -0.36702111363 1.2585918903 -1.050538063 0.3250965178
          4.2375555038 -4.2665371895 -0.41799476743 0.39272224903 -0.62378740311 -0.16417978704
          1.8833910227 -2.2353966236 1.8435162019e-07 4.1274657249 -3.0283408165 0.55272090435
          0 0 0 0 0 0
          1.1109400988 -1.888379693 -0.47567117214 2.9705679417 -3.8311765194 -0.66129261255
          5.8001708984 -4.7372479439 2.9202647056e-06 2.8312699795 -2.5481336117 0.44608974457
          2.9671342373 -3.9417583942 -0.33675333858 0.85024434328 -0.77339321375 0.23973731697
          4.2302050591 -4.3052721024 1.9340470772e-06 1.0558166504 -2.0070836544 -0.24268463254
          0.38189157844 -0.63924086094 -7.4383979154e-07 0 0 0
          7.234457016 -6.4852051735 -0.85168874264 0 0 0
          5.4543890953 -6.1105318069 -0.7416639328 1.9135355949 -2.1985037327 0.3415620625
          7.2854895592 -6.571138382 -0.43147149682 2.347454071 -1.4970808029 1.0710524321
          0 0 0 0 0 0
          1.0354168415 -2.0418016911 -7.7155681311e-07 2.957461834 -3.9749629498 8.5178089648e-07
          0.0027919777203 -0.52571630478 -0.16721661389 5.4992041588 -6.1960229874 -0.37388500571
          1.4436579943 -0.92034929991 0.79695373774 1.8007080555 -3.6178848743 -0.50434905291
          0 0 0 5.81310606 -4.6918730736 0.4998036623
          -0.069853715599 -0.64717900753 -0.089153803885 1.7774085999 -3.7204596996 -0.2574365437
          4.2375569344 -4.2665348053 0.41799870133 0.39272341132 -0.62378644943 0.16417847574
          3.9577147961 -5.8147172928 -0.63007307053 0.18066045642 -1.8255206347 -0.27740225196
          7.2880196571 -6.6013484001 4.4556877583e-06 4.1748929024 -2.8473453522 1.0722738504
          0 0 0 0 0 0
          3.9751889706 -5.8970890045 -0.3176573813 2.8848319054 -2.404471159 0.87486952543
          5.5071015358 -6.2253351212 3.1758877412e-06 0.12737232447 -1.9449951649 -0.14758247137
          0.98957747221 -0.65733850002 0.5834723711 -0.083507031202 -0.67330861092 -1.6156675429e-06
          1.7677322626 -3.749758482 -3.909845816e-07 2.9671361446 -3.9417560101 0.33675509691
          1.0558184385 -2.0070819855 0.24268314242 3.9778885841 -5.924185276 1.807229296e-06
          1.9720203876 -2.0709075928 0.66700494289 0.11432396621 -1.9795709848 -1.9605090529e-06
          2.5550739765 -5.6068224907 -0.52490979433 7.2854914665 -6.5711359978 0.43148049712
          5.7844147682 -4.5653824806 0.98006105423 0 0 0
          8.5234832764 -8.5424633026 -0.74468266964 0 0 0
          0 0 0 0.53346800804 -3.495834589 -0.36075350642
          2.5482552052 -5.6813693047 -0.26462566853 8.5720758438 -8.5982179642 -0.37459638715
          6.5965886116 -8.2055740356 -0.67247968912 5.499206543 -6.1960201263 0.37389144301
          -0.6496874094 -0.6747931242 0.001077848603 0 0 0
          4.2132692337 -4.1476984024 0.82046955824 0.50318998098 -0.50821220875 0.36702024937
          0.49103438854 -3.5889234543 -0.18704371154 -0.06985218823 -0.64717775583 0.089150778949
          -0.74621617794 -0.78715342283 -0.018649498001 1.7774106264 -3.720457077 0.25743579865
          6.6400923729 -8.2641773224 -0.33654052019 3.9751911163 -5.8970861435 0.31766107678
          2.5470993519 -5.706741333 2.9501362064e-07 8.5803956985 -8.6185293198 6.2148269535e-06
          -0.7083927393 -1.9422078133 -0.20392784476 0.12737436593 -1.9449931383 0.14757858217
          0 0 0 4.9082341194 -7.9357705116 -0.59859341383
          1.1109429598 -1.8883758783 0.47566986084 2.9705715179 -3.831171751 0.6612945199
          0.48163807392 -3.6171216965 -1.8230434762e-06 6.6516680717 -8.2848043442 4.6799164011e-06
          -0.76368808746 -0.82225626707 -3.0627209071e-06 -0.77650779486 -2.023219347 -0.092749275267
          4.9316067696 -7.9931621552 -0.29947829247 7.2344613075 -6.4851999283 0.85169798136
          0 0 0 1.0856292248 -5.4596524239 -0.44357705116
          5.4543938637 -6.1105260849 0.74167054892 -0.78003722429 -2.0649425983 -3.7629258713e-06
          1.0622396469 -5.5225172043 -0.2206261158 4.938659668 -8.0132417679 3.0666153634e-06
          0.0027936538681 -0.52571350336 0.16721400619 2.5482575893 -5.6813659668 0.26462632418
          3.3386297226 -7.7424359322 -0.53019165993 8.5720787048 -8.5982151031 0.37460887432
          -0.51318955421 -3.5428030491 -0.31620287895 1.8007116318 -3.6178796291 0.50434845686
          0 0 0 0.49103671312 -3.5889208317 0.18704010546
          3.3443717957 -7.7940926552 -0.26536050439 -0.74621409178 -0.78715193272 0.018643595278
          -0.55269807577 -3.6015200615 -0.15042170882 6.6400947571 -8.2641744614 0.33654996753
          3.957719326 -5.8147115707 0.63007694483 0.18066349626 -1.8255163431 0.27739843726
          9.6727151871 -10.674091339 -0.664722085 0 0 0
          1.0585757494 -5.5452246666 -1.3851175709e-06 7.6452798843 -10.36888504 -0.61664694548
          9.7115716934 -10.711544991 -0.33352854848 0 0 0
          -1.5318089724 -0.86234492064 0.058190811425 7.6811118126 -10.40993309 -0.30766707659
          3.3465497494 -7.8132200241 1.3327501165e-06 -1.6654564142 -0.9208407402 0.011222767644
          -0.77650523186 -2.0232172012 0.092741847038 -0.55444258451 -3.6331446171 -3.7476656871e-06
          4.9316096306 -7.9931588173 0.29948449135 5.8094649315 -10.120177269 -0.56498223543
          -1.6447097063 -2.1182992458 -0.20691426098 9.7205934525 -10.725561142 8.1835523815e-06
          0 0 0 -1.7134026289 -2.1442608833 -0.093336194754
          5.8338184357 -10.161437988 -0.28189697862 7.6918172836 -10.424752235 6.4250930336e-06
          -1.6772173643 -0.96037232876 -5.3305584515e-06 2.5550785065 -5.6068162918 0.5249106288
          1.7765903473 -7.5921182632 -0.47704702616 8.5234880447 -8.5424575806 0.74469542503
          0 0 0 -0.15015335381 -5.4235358238 -0.37848216295
          1.0622425079 -5.5225143433 0.22062340379 0.53347188234 -3.4958291054 0.36075004935
          6.5965943336 -8.2055683136 0.67248934507 -0.64968550205 -0.6747893095 -0.0010833246633
          -0.16505587101 -5.4748935699 -0.18784748018 1.7731066942 -7.6371736526 -0.23542420566
          3.3443746567 -7.7940888405 0.2653632462 -0.55269521475 -3.6015172005 0.15041430295
          5.8414077759 -10.175867081 4.5956917347e-06 -1.7150520086 -2.1745336056 -6.2084122874e-06
          4.1072845459 -9.941488266 -0.51378840208 -1.5009939671 -3.7093961239 -0.31958222389
          -0.70838922262 -1.9422026873 0.20392054319 9.7115745544 -10.71154213 0.33354496956
          4.9082398415 -7.9357638359 0.59859979153 0 0 0
          1.7732312679 -7.6532006264 -5.5492324691e-07 -0.16472804546 -5.4952764511 -3.36685207e-06
          4.1207003593 -9.9787731171 -0.25701138377 7.6811146736 -10.409929276 0.3076800108
          -1.5356535912 -3.7300589085 -0.1497836411 -1.6654536724 -0.92083901167 -0.011233224533
          1.0856343508 -5.4596457481 0.44357457757 4.1242880821 -9.9917650223 2.6620375593e-06
          5.8338212967 -10.161434174 0.28190621734 -1.7133995295 -2.1442584991 0.093323916197
          -1.5338460207 -3.7528440952 -6.2545209403e-06 10.716507912 -12.841974258 -0.61125028133
          0 0 0 10.744234085 -12.871016502 -0.30634775758
          3.3386352062 -7.7424292564 0.53019452095 8.6150074005 -12.560423851 -0.57397592068
          -0.51318502426 -3.5427968502 0.31619560719 0.31104701757 -7.5019874573 -0.39902472496
          -1.1514095068 -1.2354978323 0.55766314268 -0.16505263746 -5.4748902321 0.18784078956
          1.7731100321 -7.637169838 0.23542313278 0 0 0
          8.6417837143 -12.593114853 -0.28593116999 0.30364242196 -7.5467119217 -0.20392005146
          -1.1548858881 -1.3449927568 0.14279861748 2.4695615768 -9.8079652786 -0.46897765994
          -1.2496087551 -5.5541582108 -0.37327694893 9.6727218628 -10.674084663 0.66473871469
          0 0 0 7.6452865601 -10.368878365 0.6166600585
          10.752308846 -12.882025719 1.035038531e-05 -1.2699346542 -5.5778298378 -0.17681464553
          2.4749627113 -9.8401536942 -0.23447583616 -1.5318067074 -0.86233973503 -0.058200903237
          6.6555156708 -12.333824158 -0.53171378374 -2.4910156727 -2.3136866093 -0.15655568242
          0 0 0 4.1207036972 -9.9787693024 0.25701674819
          -1.5356502533 -3.730055809 0.14977125823 8.6502666473 -12.604841232 8.3909808382e-06
          0.30518329144 -7.5594844818 -2.6434577194e-06 6.6782565117 -12.366753578 -0.26474529505
          -2.5636985302 -2.3436062336 -0.089067749679 -1.0996326208 -1.347058177 -4.5256188059e-06
          5.8094711304 -10.12016964 0.56499165297 -1.6447056532 -2.118293047 0.20690205693
          2.4774708748 -9.8508768082 5.8230290279e-07 -1.2649470568 -5.5978899002 -5.8717023421e-06
          1.7765961885 -7.5921106339 0.47704604268 6.6851992607 -12.377851486 6.3614979808e-06
          -2.5232710838 -2.3641839027 -8.7530270321e-06 -0.15014795959 -5.4235286713 0.37847554684
          10.744236946 -12.871012688 0.3063685298 4.8285493851 -12.181866646 -0.48975476623
          0 0 0 -2.4707171917 -3.9328904152 -0.35003554821
          4.8457107544 -12.209643364 -0.24431878328 8.641787529 -12.593111038 0.2859480083
          -1.1548855305 -1.3449909687 -0.14280754328 0.30364578962 -7.546708107 0.20391476154
          -2.5140750408 -3.9235520363 -0.16709204018 4.1072907448 -9.9414806366 0.51379388571
          0.82595300674 -9.709482193 -0.42481991649 2.4749660492 -9.8401498795 0.23447702825
          -1.5009889603 -3.7093889713 0.31956991553 -1.269931078 -5.5778260231 0.17680296302
          -0.91296815872 -7.5910315514 -0.40949466825 0.81940549612 -9.7356023788 -0.21532700956
          4.8505196571 -12.218886375 4.2366050366e-06 6.6782603264 -12.366749763 0.26475808024
          -2.5636959076 -2.3436033726 0.089050352573 -0.9269195199 -7.6075305939 -0.19624695182
          -2.5103368759 -3.9348785877 -9.1940737548e-06 11.694962502 -15.030057907 -0.58227354288
          0 0 0 -0.70176428556 -1.5045526028 0.41249349713
          0.82213246822 -9.7444953918 -1.6763236772e-06 3.10668993 -12.088747025 -0.45883852243
          9.5246524811 -14.76262188 -0.54413992167 10.716515541 -12.841966629 0.61127120256
          0 0 0 0 0 0
          -0.91920101643 -7.6257963181 -5.2000768846e-06 -2.2374846935 -5.7986431122 -0.42498996854
          11.711828232 -15.059062004 -0.29137644172 3.1165533066 -12.107240677 -0.22982640564
          9.5423049927 -14.794755936 -0.27068546414 8.6150150299 -12.560415268 0.573992908
          -0.65683227777 -1.5282254219 0.1758351326 0.31105300784 -7.501979351 0.39901944995
          -1.1514120102 -1.2354954481 -0.55767077208 -2.2669930458 -5.7828593254 -0.19976896048
          4.8457145691 -12.209639549 0.24432730675 -2.5140714645 -3.9235489368 0.16707375646
          7.4410638809 -14.556349754 -0.5007096529 2.4695680141 -9.8079566956 0.46897894144
          -1.2496030331 -5.5541501045 0.37326529622 0 0 0
          -1.2795248032 -2.6159367561 0.33358091116 11.71840477 -15.069644928 1.2705273548e-05
          -0.67259371281 -1.5647599697 -3.6760702642e-06 3.120572567 -12.115185738 1.9922292722e-06
          7.4608716965 -14.587473869 -0.24853083491 6.6555233002 -12.333815575 0.53172671795
          9.5482387543 -14.805721283 1.0559866496e-05 -2.4910128117 -2.3136796951 0.15653902292
          -2.2601633072 -5.7949781418 -8.8528286142e-06 -1.3208708763 -2.7331175804 0.15735834837
          0.819409132 -9.7355976105 0.2153237164 -0.92691582441 -7.6075267792 0.19623661041
          -0.50320678949 -9.7545852661 -0.44472154975 7.4664282799 -14.597212791 8.3472232291e-06
          -1.3155754805 -2.7508685589 -6.7721985033e-06 -0.50589454174 -9.7595615387 -0.21705564857
          5.4845371246 -14.441217422 -0.4607590735 0 0 0
          -1.9768719673 -3.9421520233 0.22776508331 11.711832047 -15.059057236 0.2914018929
          -0.65683186054 -1.5282242298 -0.17584204674 3.1165571213 -12.107236862 0.22983044386
          5.5042538643 -14.463850021 -0.22880640626 4.8285565376 -12.181858063 0.4897634685
          9.5423088074 -14.794752121 0.27070662379 1.4043668509 -12.01693058 -0.45672929287
          -1.9318026304 -7.8254303932 -0.47924283147 -2.4707119465 -3.932882309 0.35001733899
          -2.0563058853 -4.0932230949 0.053557306528 -2.2669892311 -5.7828555107 0.1997513473
          1.4062006474 -12.024111748 -0.22501677275 -1.9468214512 -7.8010725975 -0.22790543735
          -0.49716106057 -9.7714548111 -4.2533356464e-06 0.82595968246 -9.7094736099 0.42481681705
          7.4608755112 -14.587470055 0.24854758382 -0.91296178102 -7.5910229683 0.40948438644
          5.5088334084 -14.471261978 6.0591478359e-06 -1.3208705187 -2.7331151962 -0.15737189353
          -2.0488250256 -4.0999283791 -8.9230989033e-06 1.409538269 -12.029628754 -3.809063287e-07
          -1.9360040426 -7.8121714592 -8.1799789768e-06 -2.6891169548 -5.9180440903 -0.075011916459
          3.6874761581 -14.402224541 -0.44210448861 11.694970131 -15.030049324 0.58229917288
          0 0 0 -0.50589054823 -9.7595567703 0.21704722941
          -0.70176631212 -1.5045514107 -0.41250020266 -2.7645885944 -6.0343804359 -0.10916685313
          3.1066970825 -12.088738441 0.45884272456 9.5246610641 -14.762613297 0.54416126013
          3.7033891678 -14.411354065 -0.21997073293 12.648103714 -17.245588303 -0.57454353571
          0 0 0 -2.2374784946 -5.7986345291 0.42497238517
          12.655126572 -17.280836105 -0.28696417809 -0.49888733029 -1.5191850662 0.36768954992
          10.398324966 -16.980268478 -0.52664572001 5.5042581558 -14.463845253 0.22881858051
          0 0 0 -2.0563054085 -4.0932207108 -0.053575079888
          10.407247543 -17.017871857 -0.26177796721 -0.42976531386 -1.5176984072 0.15682135522
          1.4062049389 -12.024107933 0.22501607239 -1.9468175173 -7.801068306 0.22788916528
          7.4410719872 -14.556340218 0.50072658062 -2.6731364727 -5.9960064888 -1.0655648111e-05
          3.7072620392 -14.416937828 3.6939277379e-06 -1.2795270681 -2.6159343719 -0.33359315991
          -0.032791376114 -12.027862549 -0.4612044394 -0.97070246935 -2.8117482662 0.39584299922
          8.1754789352 -16.778493881 -0.47248017788 -1.5763618946 -9.9724302292 -0.51343780756
          12.659949303 -17.29293251 1.5236453692e-05 0 0 0
          -0.024481898174 -12.027141571 -0.22872687876 10.410797119 -17.029838562 1.2909569705e-05
          -0.43268769979 -1.5327726603 -2.666159844e-06 8.1907444 -16.813573837 -0.23419900239
          -0.96279525757 -2.8529303074 0.21214842796 -1.5743077993 -9.9467763901 -0.24658577144
          -0.50319975615 -9.7545757294 0.4447132349 -0.016923442483 -12.030477524 -2.936185183e-06
          -2.8399808407 -8.1252279282 -0.53210037947 -2.7645871639 -6.0343775749 0.10914580524
          2.0111896992 -14.382212639 -0.45269039273 8.1948204041 -16.823225021 1.0524822756e-05
          5.4845452309 -14.441208839 0.46077144146 3.7033934593 -14.411349297 0.21997818351
          -1.5613487959 -9.9548215866 -7.1798335739e-06 -0.95128190517 -2.8764636517 -5.4294619076e-06
          -1.9768730402 -3.9421491623 -0.22778151929 12.655130386 -17.280830383 0.28699469566
          6.0606222153 -16.683708191 -0.42279055715 -2.8598368168 -8.0873708725 -0.26883748174
          -1.4709795713 -4.2129912376 0.35266608 2.0245831013 -14.38048172 -0.2224253267
          1.4043745995 -12.016921043 0.45672881603 -1.9317958355 -7.8254213333 0.4792265892
          0 0 0 -1.4936263561 -4.3036894798 0.18781150877
          10.407252312 -17.017868042 0.26180383563 -0.42976552248 -1.5176979303 -0.15682646632
          6.0796790123 -16.706523895 -0.21046067774 -2.8450226784 -8.0826215744 -1.1324968e-05
          2.0293991566 -14.383037567 1.2384937236e-06 -0.024477625266 -12.027136803 0.22872103751
          6.0833125114 -16.712976456 8.0943991634e-06 -1.4932841063 -4.3320260048 -7.8795683294e-06
          8.1907482147 -16.813570023 0.23422010243 -0.96279573441 -2.8529295921 -0.21215906739
          -1.5743037462 -9.9467725754 0.24657148123 -2.6891155243 -5.9180383682 0.074993662536
          3.6874842644 -14.402215004 0.4421120882 4.1846404076 -16.687944412 -0.40665474534
          12.648112297 -17.245580673 0.5745741725 0 0 0
          -1.878877759 -5.872338295 0.32156065106 -0.4988899529 -1.5191851854 -0.36769470572
          10.398333549 -16.980260849 0.52667170763 -2.8598327637 -8.0873661041 0.26881489158
          2.0245876312 -14.380476952 0.2224278152 4.203783989 -16.691677094 -0.20283903182
          -1.1888830662 -12.222145081 -0.51895129681 -1.9099184275 -6.0200314522 0.14270065725
          -1.4936265945 -4.3036880493 -0.18782691658 6.0796837807 -16.706520081 0.21047693491
          -1.1758213043 -12.201439857 -0.24945776165 0.46820524335 -14.382472992 -0.45631718636
          -2.5302596092 -10.292601585 -0.58653026819 13.60815239 -19.515148163 -0.58335584402
          0 0 0 11.262356758 -19.243654251 -0.52156686783
          -0.032783549279 -12.027853012 0.46119859815 -0.970705688 -2.8117482662 -0.39585310221
          8.1754875183 -16.778484344 0.47250142694 -2.5232543945 -10.249223709 -0.28875666857
          0.47744232416 -14.374677658 -0.2285656184 -1.5763545036 -9.9724197388 0.51342356205
          13.607194901 -19.560119629 -0.29097718 0 0 0
          -1.9348084927 -6.0457077026 -9.8124128272e-06 4.2072553635 -16.695011139 5.6253197727e-06
          -0.38763299584 -1.4988827705 0.29577746987 11.263690948 -19.290031433 -0.25936663151
          -0.30981647968 -1.4754772186 0.12755438685 -1.1648504734 -12.206228256 -5.8189557421e-06
          8.8869056702 -19.028589249 -0.45418545604 -2.5118975639 -10.246758461 -1.0348694559e-05
          0.48335236311 -14.373573303 -1.3623046016e-06 13.610233307 -19.574981689 1.7924021449e-05
          0 0 0 -0.70406103134 -2.8289687634 0.37429463863
          8.8965234756 -19.071453094 -0.22514376044 11.265364647 -19.304450989 1.5408386389e-05
          -2.839974165 -8.1252174377 0.53207802773 2.0111980438 -14.382203102 0.45269292593
          -0.30807650089 -1.4804047346 -1.8419525531e-06 -0.65683734417 -2.8235428333 0.19808271527
          6.0606307983 -16.683698654 0.42280697823 -1.4709819555 -4.212990284 -0.35268044472
          -2.2124795914 -7.7364439964 0.31863826513 2.5361111164 -16.714969635 -0.42480814457
          -1.9099179506 -6.0200295448 -0.14271990955 4.2037882805 -16.691671371 0.2028503269
          -2.275097847 -7.9441146851 0.082349434495 2.5523211956 -16.704202652 -0.21114093065
          -1.1758170128 -12.201435089 0.24944613874 8.8999004364 -19.083080292 1.2857185538e-05
          -0.64096319675 -2.8300478458 -4.0167401494e-06 6.5723805428 -18.913860321 -0.39284667373
          -2.523250103 -10.249218941 0.28873601556 0.4774467051 -14.37467289 0.22856287658
          13.607199669 -19.560113907 0.291013062 0 0 0
          -0.99482780695 -4.1864333153 0.42123010755 6.5871219635 -18.94134903 -0.1953265518
          11.263695717 -19.290025711 0.25939747691 -0.97162234783 -4.2189855576 0.22182828188
          -2.2808442116 -7.9579434395 -1.1082000128e-05 2.5571649075 -16.704124451 3.0889789286e-06
          -0.30981689692 -1.4754772186 -0.12755797803 8.896528244 -19.07144928 0.22516950965
          6.5896959305 -18.947990417 1.0308434867e-05 -0.96640521288 -4.2349486351 -6.2202279878e-06
          4.1846494675 -16.687934875 0.40666615963 -0.77327299118 -14.519536972 -0.50042957067
          -0.65683817863 -2.8235428333 -0.1980907023 -1.8788784742 -5.8723363876 -0.32157859206
          -2.1672804356 -12.533981323 -0.58619052172 -0.75784420967 -14.501020432 -0.24579933286
          -1.1888751984 -12.222135544 0.5189396739 -2.1489238739 -12.497696877 -0.28534933925
          -2.2750971317 -7.944111824 -0.082371301949 2.5523257256 -16.70419693 0.21114709973
          0.46821349859 -14.382463455 0.45631441474 -2.5302519798 -10.292592049 0.58650970459
          -1.255718708 -5.7404184341 0.4626095593 4.5886297226 -18.938087463 -0.37206417322
          13.608160973 -19.515138626 0.58339178562 0 0 0
          11.262366295 -19.243642807 0.52159780264 -1.249412179 -5.8170790672 0.24214226007
          -0.74861848354 -14.502111435 -4.2446331463e-06 -2.7297339439 -10.131983757 0.096337422729
          0.98329097033 -16.72420311 -0.45782452822 4.6080756187 -18.938554764 -0.18603773415
          -0.38763543963 -1.4988834858 -0.29578137398 -2.137575388 -12.495398521 -9.0063640528e-06
          6.5871267319 -18.941345215 0.19534721971 -0.97162306309 -4.2189850807 -0.22184054554
          0.99393779039 -16.705022812 -0.22612093389 -2.8249106407 -10.314067841 -0.078987151384
          8.8869152069 -19.028579712 0.45421132445 -1.2489506006 -5.8475289345 -8.2457372628e-06
          4.6114554405 -18.941123962 7.7477498053e-06 -0.7040643096 -2.828969717 -0.37430244684
          0.99824351072 -16.700553894 3.8144986547e-07 14.595223427 -21.872587204 -0.60244882107
          0 0 0 -2.7140381336 -10.231341362 -1.2029271602e-05
          14.589150429 -21.928113937 -0.30047571659 0 0 0
          -0.75783985853 -14.501015663 0.2457908392 12.134549141 -21.591464996 -0.52693986893
          -2.212479353 -7.7364401817 -0.31865844131 2.5361196995 -16.714958191 0.42481434345
          -0.24308738112 -1.4267010689 0.218879655 -2.1489193439 -12.497692108 0.28533136845
          12.130752563 -21.647510529 -0.26248458028 -0.16966934502 -1.3876560926 0.092109248042
          6.5723900795 -18.913850784 0.39286747575 14.5906353 -21.946334839 2.0735982616e-05
          -1.2494125366 -5.8170785904 -0.24215845764 9.61647892 -21.355798721 -0.44909700751
          -0.39149525762 -2.6737601757 0.32152053714 4.6080803871 -18.938550949 0.18605326116
          0 0 0 2.9912831783 -19.003004074 -0.40426379442
          -1.5203646421 -7.6020274162 0.48304077983 -0.99483090639 -4.186434269 -0.42124181986
          -0.32365176082 -2.6395907402 0.16636352241 9.6220121384 -21.409200668 -0.22247228026
          12.131047249 -21.665409088 1.8010985514e-05 0.99394226074 -16.705018997 0.22612170875
          -1.5277395248 -7.7192616463 0.25366026163 3.0088832378 -18.985322952 -0.20041276515
          -2.824909687 -10.314065933 0.078963704407 -0.16334106028 -1.3856263161 -1.1122067463e-06
          -1.7844221592 -14.789945602 -0.5633571744 9.625079155 -21.424907684 1.5280020307e-05
          -0.77326476574 -14.519526482 0.50042098761 -0.30423587561 -2.6350805759 -2.6041234378e-06
          -1.5285531282 -7.7554450035 -1.0054000995e-05 -1.763389945 -14.758476257 -0.27517065406
          3.0150082111 -18.983753204 5.1035367505e-06 -2.1672723293 -12.533970833 0.58617264032
          14.589154243 -21.928108215 0.30051717162 7.1075320244 -21.188617706 -0.37467119098
          -3.0022501945 -12.890461922 -0.62623262405 0 0 0
          -0.48208829761 -3.9317851067 0.41655340791 -0.33801883459 -16.793560028 -0.48243951797
          -0.42747688293 -3.9207091331 0.21829663217 7.1219696999 -21.228290558 -0.18477764726
          12.130757332 -21.647504807 0.26252061129 -2.9917805195 -12.855751991 -0.31476205587
          -0.32232835889 -16.774017334 -0.24173998833 -0.16966988146 -1.3876562119 -0.092111490667
          -1.255720973 -5.740418911 -0.46262478828 4.5886392593 -18.938077927 0.37207981944
          -1.7512618303 -14.757336617 -7.4427020991e-06 -2.7297325134 -10.131979942 -0.096357099712
          0.98329955339 -16.724193573 0.45782530308 7.1260757446 -21.238231659 1.2602177776e-05
          9.6220169067 -21.409196854 0.22250285745 -2.9749596119 -12.842651367 -1.2379536201e-05
          -0.32365274429 -2.6395907402 -0.16636881232 -0.41421923041 -3.920684576 -4.3061436372e-06
          -1.5277391672 -7.7192606926 -0.25367987156 3.0088877678 -18.985319138 0.20042298734
          -0.31531441212 -16.768238068 -2.5284246021e-06 1.5188572407 -19.032878876 -0.44403359294
          -1.7227116823 -9.7700128555 0.48992240429 1.5349040031 -19.0102005 -0.21993091702
          -1.7411609888 -9.9315719604 0.23941279948 14.595232964 -21.87257576 0.6024903059
          0 0 0 -1.7633852959 -14.758471489 0.2751558423
          -0.5327911377 -5.4000377655 0.4952274859 4.935233593 -21.169502258 -0.33678996563
          -0.49488690495 -5.413207531 0.26092484593 12.134558678 -21.591453552 0.52697592974
          -0.24308945239 -1.4267020226 -0.21888233721 4.9592175484 -21.169660568 -0.16899964213
          7.1219749451 -21.228284836 0.18480287492 -2.9917757511 -12.855746269 0.31473743916
          -0.42747786641 -3.9207088947 -0.21830523014 -0.32232385874 -16.774011612 0.24173496664
          1.5412795544 -19.004224777 2.2990964226e-06 -1.7842817307 -9.9663057327 -1.1493496459e-05
          9.6164884567 -21.355787277 0.4491276741 -0.39149832726 -2.6737613678 -0.32152599096
          2.9912922382 -19.00299263 0.40427401662 -0.48787045479 -5.4198055267 -6.1869204728e-06
          -1.520365715 -7.6020274162 -0.48305892944 4.9628853798 -21.17234993 9.9913604572e-06
          15.617518425 -24.348482132 -0.62497729063 0 0 0
          -1.7844134569 -14.789935112 0.56334239244 1.5349087715 -19.010194778 0.21993555129
          0 0 0 13.026184082 -24.055845261 -0.53750830889
          -2.6332805157 -15.142813683 -0.62999588251 -1.7411589622 -9.9315710068 -0.23943528533
          -0.025666430593 -1.2564704418 0.1213850081 -1.3970791101 -17.010637283 -0.536431849
          15.609500885 -24.413660049 -0.31200915575 7.1075415611 -21.18860817 0.37469652295
          13.020264626 -24.121269226 -0.26841709018 0.03217015788 -1.2081445456 0.049294877797
          -3.0022418499 -12.890450478 0.62620836496 -2.6095883846 -15.101971626 -0.30978810787
          -0.48209142685 -3.9317867756 -0.41656196117 3.4121024609 -21.229213715 -0.38273403049
          -0.49488738179 -5.413207531 -0.26093703508 -0.33801013231 -16.793548584 0.48243457079
          -0.54814445972 -7.2012996674 0.55305993557 4.9592227936 -21.169654846 0.16901963949
          -1.3742884398 -16.984714508 -0.26265236735 -0.52506476641 -7.2317299843 0.29128912091
          3.434710741 -21.206048965 -0.188550964 10.376029968 -23.798711777 -0.44931784272
          15.60982132 -24.435194016 2.3632876037e-05 0.067964144051 -2.3563756943 0.23900015652
          0 0 0 10.379288673 -23.864488602 -0.22280074656
          0.14301007986 -2.3044040203 0.10995142162 13.019697189 -24.142829895 2.0666821001e-05
          0.13249149919 -19.055368423 -0.46614673734 -2.5970761776 -15.09556675 -1.0903690963e-05
          -1.3642449379 -16.982421875 -5.6952885643e-06 -1.8806813955 -12.046553612 0.62042868137
          0.03800002113 -1.2043397427 -5.275434205e-07 0.14582648873 -19.033151627 -0.2354041934
          3.4428551197 -21.202848434 7.2575098784e-06 -1.9998728037 -12.30173111 0.16294895113
          -0.52911365032 -7.2475605011 -8.0620084191e-06 1.5188663006 -19.032867432 0.44403830171
          10.381526947 -23.884737015 1.7714497517e-05 -1.7227098942 -9.7700109482 -0.48994350433
          0.15882183611 -2.303640604 -1.2645680272e-06 7.7133154869 -23.575115204 -0.35326352715
          15.609505653 -24.413654327 0.31205642223 0.15198206902 -19.024793625 -6.302079214e-07
          0.19719682634 -3.4447607994 0.38296332955 -0.53279358149 -5.4000396729 -0.49523916841
          -1.9932966232 -12.306901932 -1.2593359315e-05 4.9352436066 -21.169492722 0.33681002259
          0 0 0 7.7295475006 -23.635059357 -0.17409899831
          0.26678869128 -3.4062767029 0.17467318475 13.020269394 -24.121263504 0.268458426
          -2.6095833778 -15.101965904 0.30976641178 -1.3742835522 -16.984708786 0.26264107227
          0.032169751823 -1.2081446648 -0.049295987934 3.4347155094 -21.206045151 0.18856550753
          -0.52506440878 -7.2317295074 -0.29130494595 10.379293442 -23.86448288 0.22283618152
          7.7345066071 -23.650840759 1.483656979e-05 2.0115923882 -21.253477097 -0.42225182056
          -0.56699484587 -9.2248296738 0.62696373463 0.28175154328 -3.4151828289 -2.2330386855e-06
          0.14300908148 -2.3044037819 -0.10995409638 -0.56762307882 -9.284368515 0.31946882606
          0.14583137631 -19.033145905 0.23540300131 2.0296063423 -21.226793289 -0.21075668931
          -1.9998703003 -12.301728249 -0.16297362745 5.2825655937 -23.433422089 -0.27832531929
          15.617527962 -24.348468781 0.62502455711 0 0 0
          0.35263648629 -4.7938041687 0.49811628461 5.3202991486 -23.44018364 -0.14126966894
          13.026193619 -24.055833817 0.53754967451 0.39766687155 -4.7626805305 0.23635725677