<?xml version="1.0"?>
<VTKFile type="UnstructuredGrid" version="0.1" byte_order="LittleEndian" header_type="UInt32" compressor="vtkZLibDataCompressor">
  <UnstructuredGrid>
    <Piece NumberOfPoints="6405" NumberOfCells="4800">
      <PointData>
        <DataArray type="Float32" Name="DISPLACEMENT" NumberOfComponents="3" ComponentName0="X-DISPLACEMENT" ComponentName1="Y-DISPLACEMENT" ComponentName2="Z-DISPLACEMENT" format="ascii" RangeMin="0" RangeMax="346.17339423">
          0 0 0 0 0 0
          2.7403070927 -1.6157273054 -1.2565001249 0 0 0
          1.6331484318 -0.91827583313 -0.87548345327 0 0 0
          2.5182065964 -1.8375195265 -0.49413481355 1.4269485474 -1.1076695919 -0.35721516609
          0 0 0 4.9595389366 -3.2826139927 -1.2741396427
          0 0 0 4.8992247581 -3.5353760719 -0.64960902929
          3.2579512596 -2.7538232803 -0.96975332499 0 0 0
          0 0 0 2.5319342613 -1.9019241333 -1.9531880113e-08
          0.93001103401 -0.60206961632 -0.54629606009 1.4221830368 -1.1390782595 -5.55228441e-09
          3.1889429092 -2.9611134529 -0.49391701818 0.78655344248 -0.78293442726 -0.22890931368
          4.8470664024 -3.6027565002 -3.715276975e-08 1.8696079254 -2.3746805191 -0.65819072723
          0 0 0 3.1474947929 -3.0232262611 -1.1630620023e-08
          1.787386179 -2.5607056618 -0.33988699317 0 0 0
          6.9076776505 -5.5762758255 -1.1649632454 0 0 0
          0.77918237448 -0.80952370167 9.3558272241e-09 0 0 0
          0 0 0 2.5182065964 -1.8375195265 0.49413478374
          4.7603859901 -5.0922188759 -0.93287456036 6.9334383011 -5.7543911934 -0.59079504013
          0.12671931088 -0.50799167156 -0.19269521534 1.4269485474 -1.1076695919 0.35721516609
          4.7757582664 -5.2574396133 -0.47439289093 0.010413784534 -0.7025898695 -0.10303048044
          1.7563033104 -2.6134288311 1.4941006654e-08 4.8992247581 -3.5353760719 0.64960896969
          0 0 0 0 0 0
          0.42285844684 -2.19298172 -0.3778950572 2.9210047722 -4.7473120689 -0.71688425541
          6.9134550095 -5.8150548935 -5.5776876451e-08 3.1889429092 -2.9611136913 0.49391698837
          2.8930974007 -4.8949418068 -0.3639395535 0.78655344248 -0.78293448687 0.22890932858
          4.7649316788 -5.3097968102 -1.8601747698e-08 0.32599210739 -2.3673770428 -0.20214635134
          -0.011778280139 -0.73541480303 2.7086437981e-08 0 0 0
          8.6311607361 -8.194396019 -1.0098067522 0 0 0
          6.1785669327 -7.7640151978 -0.86125129461 1.7873860598 -2.5607056618 0.33988702297
          8.6843824387 -8.310710907 -0.51129668951 2.7403070927 -1.6157273054 1.2565001249
          0 0 0 0 0 0
          0.30326956511 -2.4196050167 4.3243957748e-08 2.8823497295 -4.9412326813 1.912555625e-08
          -0.6086922884 -0.68365055323 0.073587596416 6.221570015 -7.8762779236 -0.43386799097
          1.6331484318 -0.91827589273 0.87548345327 1.0459176302 -4.5259003639 -0.53367269039
          0 0 0 6.9334383011 -5.7543911934 0.59079492092
          -0.72746276855 -0.87029850483 0.011542477645 0.98867541552 -4.6523113251 -0.26972201467
          4.7757582664 -5.2574396133 0.47439286113 0.010413764976 -0.7025898695 0.1030305326
          4.019423008 -7.4409704208 -0.72259789705 -0.74293059111 -2.2665657997 -0.23219192028
          8.6824502945 -8.3508491516 -7.4191355282e-08 4.9595389366 -3.2826139927 1.2741395235
          0 0 0 0 0 0
          4.0251846313 -7.5414767265 -0.36356577277 3.2579512596 -2.7538232803 0.96975326538
          6.2278351784 -7.9145231247 -2.66657878e-08 -0.85453993082 -2.3983359337 -0.10867856443
          0.93001103401 -0.60206967592 0.54629606009 -0.75599449873 -0.92586880922 5.2662681327e-08
          0.9768819809 -4.6941695213 5.919363133e-08 2.8930974007 -4.8949418068 0.3639395833
          0.32599207759 -2.3673770428 0.20214644074 4.0258045197 -7.5765743256 2.140140154e-08
          1.8696079254 -2.3746805191 0.65819072723 -0.86174589396 -2.4560673237 8.2049432137e-08
          1.9082176685 -7.2117333412 -0.61470627785 8.6843824387 -8.310710907 0.5112965107
          6.9076776505 -5.5762763023 1.1649631262 0 0 0
          10.150187492 -10.990750313 -0.88201248646 0 0 0
          0 0 0 -0.44647318125 -4.5032401085 -0.4283298254
          1.8890061378 -7.293735981 -0.30460616946 10.203496933 -11.063372612 -0.44398361444
          7.5012068748 -10.598620415 -0.78848874569 6.221570015 -7.8762779236 0.43386793137
          -1.4315607548 -1.0046988726 0.27598133683 0 0 0
          4.7603859901 -5.0922188759 0.93287456036 0.12671929598 -0.50799173117 0.19269526005
          -0.50816190243 -4.5917649269 -0.20880682766 -0.72746282816 -0.87029850483 -0.011542379856
          -1.6078513861 -1.1594259739 0.080436803401 0.98867541552 -4.6523113251 0.26972213387
          7.5478858948 -10.672177315 -0.39455285668 4.0251846313 -7.5414767265 0.36356580257
          1.8844711781 -7.32365942 7.2265173401e-08 10.210315704 -11.089361191 -9.2209063496e-08
          -1.8443604708 -2.5505399704 -0.26645258069 -0.85453999043 -2.3983359337 0.10867872834
          0 0 0 5.1128458977 -10.290302277 -0.69743967056
          0.42285844684 -2.1929819584 0.37789514661 2.9210047722 -4.7473120689 0.71688425541
          -0.5124796629 -4.6313905716 1.0794915539e-07 7.559366703 -10.69756031 -3.5699169842e-08
          -1.6179374456 -1.2257474661 9.1851795503e-08 -1.9844187498 -2.5787398815 -0.10910721868
          5.1344995499 -10.356996536 -0.34874972701 8.6311607361 -8.194396019 1.009806633
          0 0 0 0.10102695227 -7.1210017204 -0.52225089073
          6.1785669327 -7.7640151978 0.86125123501 -1.9782298803 -2.6274681091 1.3201932347e-07
          0.073688775301 -7.1811242104 -0.26074236631 5.1400756836 -10.380335808 2.1176289167e-08
          -0.6086922884 -0.68365061283 -0.073587499559 1.8890061378 -7.293735981 0.30460631847
          2.8378448486 -10.066209793 -0.62301272154 10.203496933 -11.063372612 0.44398340583
          -1.6419034004 -4.7737617493 -0.50297266245 1.0459176302 -4.5259003639 0.5336728096
          0 0 0 -0.50816190243 -4.5917649269 0.20880705118
          2.84120965 -10.119569778 -0.30954951048 -1.6078513861 -1.1594260931 -0.080436632037
          -1.7136534452 -4.7724943161 -0.22423441708 7.5478858948 -10.672177315 0.39455279708
          4.019423008 -7.4409704208 0.72259795666 -0.74293059111 -2.2665660381 0.23219208419
          11.510237694 -13.87839222 -0.78769040108 0 0 0
          0.072053842247 -7.2049865723 1.285013127e-07 8.7320766449 -13.515810966 -0.72503811121
          11.55479908 -13.925962448 -0.39477086067 0 0 0
          -2.069630146 -1.4807794094 0.38693347573 8.7727928162 -13.565649986 -0.36140066385
          2.8409636021 -10.138390541 8.0583618001e-08 -2.2690749168 -1.5945550203 0.099022358656
          -1.9844187498 -2.5787398815 0.1091074869 -1.7067717314 -4.807369709 1.6353023113e-07
          5.1344995499 -10.356996536 0.34874975681 6.1676707268 -13.220328331 -0.6590051651
          -2.7033674717 -3.0085368156 -0.51921790838 11.563997269 -13.942862511 -1.1002196487e-07
          0 0 0 -2.8588068485 -2.8907220364 -0.22481128573
          6.192946434 -13.265729904 -0.32823762298 8.7843494415 -13.582373619 -4.5684942052e-08
          -2.1623654366 -1.6911634207 1.5167817935e-07 1.9082176685 -7.2117338181 0.61470639706
          0.7607473731 -9.962059021 -0.56389707327 10.150187492 -10.990750313 0.88201230764
          0 0 0 -1.2230093479 -7.3727631569 -0.61754268408
          0.0736887604 -7.1811246872 0.26074263453 -0.44647318125 -4.5032401085 0.42833006382
          7.5012068748 -10.598620415 0.78848868608 -1.4315606356 -1.0046989918 -0.27598115802
          -1.2615563869 -7.352997303 -0.2842707932 0.74935537577 -9.9941272736 -0.28249868751
          2.84120965 -10.119569778 0.30954965949 -1.7136534452 -4.7724943161 0.22423474491
          6.1998758316 -13.280181885 1.864655097e-08 -2.846159935 -2.9147121906 1.8386990064e-07
          3.7356865406 -13.012468338 -0.60257714987 -2.3798732758 -5.349339962 -0.77981036901
          -1.8443604708 -2.5505402088 0.26645284891 11.55479908 -13.925962448 0.39477065206
          5.1128458977 -10.290302277 0.69743973017 0 0 0
          0.74965041876 -10.008750916 1.4278754179e-07 -1.2499129772 -7.3791680336 1.8689759429e-07
          3.7469558716 -13.044267654 -0.30066335201 8.7727928162 -13.565649986 0.36140057445
          -2.4561624527 -5.2217803001 -0.35226526856 -2.2690749168 -1.5945550203 -0.099022075534
          0.10102695227 -7.1210021973 0.52225112915 3.7493114471 -13.055109978 8.4583653859e-08
          6.192946434 -13.265729904 0.32823768258 -2.8588068485 -2.8907220364 0.22481165826
          -2.4403889179 -5.2335577011 2.1555194962e-07 12.753886223 -16.824798584 -0.72134357691
          0 0 0 12.787926674 -16.858844757 -0.3603438735
          2.8378448486 -10.066210747 0.62301290035 9.882183075 -16.485467911 -0.6747635603
          -1.6419034004 -4.7737622261 0.50297302008 -0.7086378336 -10.208124161 -0.6902346015
          -1.3633435965 -2.1093351841 0.63958668709 -1.2615563869 -7.3529977798 0.28427118063
          0.74935537577 -9.9941272736 0.28249898553 0 0 0
          9.9139213562 -16.521678925 -0.33560404181 -0.72533684969 -10.164980888 -0.32396042347
          -1.4992123842 -2.1636967659 0.16298091412 1.4548410177 -12.92459774 -0.58440500498
          -1.931481123 -8.0369358063 -0.91706204414 11.510237694 -13.87839222 0.78769016266
          0 0 0 8.7320766449 -13.515810966 0.72503805161
          12.796483994 -16.870534897 -1.2766712132e-07 -1.9601291418 -7.9038643837 -0.42323693633
          1.4513537884 -12.929359436 -0.29160445929 -2.069630146 -1.4807795286 -0.38693317771
          7.1721496582 -16.203830719 -0.62275254726 -3.1578116417 -3.6035177708 -0.74024534225
          0 0 0 3.7469558716 -13.044267654 0.30066350102
          -2.4561624527 -5.2217803001 0.3522657156 9.9235963821 -16.533014297 -5.6304930496e-08
          -0.71023380756 -10.18372345 2.0298860193e-07 7.1943569183 -16.235479355 -0.30926018953
          -3.3071010113 -3.4555027485 -0.38078501821 -1.4776415825 -2.1871078014 1.3932951504e-07
          6.1676707268 -13.220328331 0.6590052247 -2.7033672333 -3.0085370541 0.51921832561
          1.4526853561 -12.937808037 1.5185588609e-07 -1.9374700785 -7.9112663269 2.3831373142e-07
          0.7607473731 -9.9620599747 0.56389737129 7.2010450363 -16.244070053 1.4678207094e-08
          -3.2836289406 -3.4360544682 2.4857757808e-07 -1.2230092287 -7.3727636337 0.61754304171
          12.787926674 -16.858844757 0.36034363508 4.5810804367 -16.011514664 -0.58035027981
          0 0 0 -2.8999984264 -6.0579743385 -1.0602504015
          4.5930337906 -16.026569366 -0.28997591138 9.9139213562 -16.521678925 0.33560392261
          -1.4992125034 -2.1636967659 -0.16298063099 -0.72533684969 -10.164980888 0.3239608407
          -2.9499926567 -5.8765845299 -0.53110331297 3.7356865406 -13.012468338 0.60257732868
          -0.14959670603 -13.172142029 -0.73696690798 1.4513537884 -12.929359436 0.29160475731
          -2.3798732758 -5.349339962 0.77981084585 -1.9601291418 -7.9038648605 0.42323741317
          -1.4625458717 -10.911206245 -0.98527449369 -0.14812740684 -13.109051704 -0.35063609481
          4.5965528488 -16.031816483 8.611164759e-08 7.1943569183 -16.235479355 0.30926021934
          -3.3071010113 -3.4555027485 0.38078552485 -1.4536569118 -10.782182693 -0.46400621533
          -2.9475314617 -5.8432717323 2.792623377e-07 13.913758278 -19.81832695 -0.67587280273
          0 0 0 -0.85463184118 -2.6447992325 0.39008700848
          -0.1309389025 -13.120417595 2.1336133216e-07 2.1499450207 -15.940883636 -0.59378302097
          10.966901779 -19.49694252 -0.6381509304 12.753886223 -16.824798584 0.72134333849
          0 0 0 0 0 0
          -1.4270648956 -10.784761429 2.5379569024e-07 -2.4332146645 -8.8642978668 -1.1725668907
          13.93795681 -19.845046997 -0.33702284098 2.1515550613 -15.924108505 -0.29547718167
          10.989639282 -19.525140762 -0.3170863688 9.882183075 -16.485467911 0.67476344109
          -0.94209426641 -2.6202881336 0.15323291719 -0.70863777399 -10.208124161 0.69023501873
          -1.3633435965 -2.1093351841 -0.63958644867 -2.429523468 -8.7000007629 -0.58871251345
          4.5930337906 -16.026569366 0.28997606039 -2.9499926567 -5.8765845299 0.53110384941
          8.1323108673 -19.226522446 -0.59533751011 1.4548410177 -12.92459774 0.584405303
          -1.9314810038 -8.0369358063 0.91706258059 0 0 0
          -1.9444746971 -4.516767025 -0.10158360749 13.944712639 -19.853815079 -1.454960028e-07
          -0.98359751701 -2.6614615917 1.3198697957e-07 2.1536593437 -15.927575111 1.5755666993e-07
          8.1493139267 -19.249279022 -0.29519200325 7.1721496582 -16.203830719 0.62275254726
          10.996953964 -19.533306122 -6.7483128419e-08 -3.1578116417 -3.6035180092 0.7402458787
          -2.4158246517 -8.6672677994 2.9616438724e-07 -2.2579123974 -4.6151971817 -0.18598113954
          -0.14812736213 -13.109051704 0.35063651204 -1.4536567926 -10.782182693 0.46400672197
          -1.001974225 -13.85392952 -0.9979904294 8.1550483704 -19.254383087 9.975611448e-09
          -2.1905403137 -4.5810785294 2.4588561587e-07 -0.9691439867 -13.737358093 -0.4789095819
          5.3918399811 -19.039964676 -0.56418263912 0 0 0
          -3.1925959587 -6.8987498283 -1.2950694561 13.93795681 -19.845046997 0.33702254295
          -0.94209426641 -2.6202881336 -0.15323267877 2.1515550613 -15.924108505 0.2954775095
          5.4023246765 -19.044137955 -0.28172016144 4.5810804367 -16.011514664 0.58035045862
          10.989639282 -19.525140762 0.31708621979 0.4286121726 -16.180315018 -0.7577200532
          -1.979814291 -11.811378479 -1.2049411535 -2.8999984264 -6.0579748154 1.0602509975
          -3.2343132496 -6.7301449776 -0.6752306819 -2.429523468 -8.7000007629 0.5887131691
          0.44392848015 -16.106287003 -0.36441725492 -1.9412252903 -11.672651291 -0.60494196415
          -0.9415422678 -13.734491348 2.6351719384e-07 -0.14959664643 -13.172142029 0.73696732521
          8.1493139267 -19.249279022 0.29519200325 -1.4625457525 -10.911206245 0.98527503014
          5.4061594009 -19.045770645 8.6808626065e-08 -2.2579126358 -4.6151971817 0.18598167598
          -3.2186317444 -6.6842236519 3.3849906345e-07 0.46198260784 -16.1106987 2.2043396086e-07
          -1.9187772274 -11.645051956 3.0358361869e-07 -2.7166221142 -9.8586587906 -1.4161820412
          2.8395316601 -18.973117828 -0.59510397911 13.913758278 -19.818328857 0.67587256432
          0 0 0 -0.96914386749 -13.737358093 0.47891011834
          -0.85463178158 -2.6447992325 -0.39008682966 -2.6872751713 -9.6976060867 -0.72261637449
          2.1499450207 -15.94088459 0.593783319 10.966901779 -19.496944427 0.6381508112
          2.8448753357 -18.943563461 -0.2959651649 15.014842987 -22.85300827 -0.64625877142
          0 0 0 -2.4332146645 -8.8642988205 1.1725674868
          15.030676842 -22.87578392 -0.32207328081 -0.42945215106 -2.953004837 0.22396723926
          12.003668785 -22.543985367 -0.61362349987 5.4023246765 -19.044137955 0.28172034025
          0 0 0 -3.2343132496 -6.7301454544 0.67523139715
          12.018651009 -22.567546844 -0.30490720272 -0.48054817319 -2.9330170155 0.10112901032
          0.44392850995 -16.106287003 0.36441770196 -1.9412251711 -11.672651291 0.6049425602
          8.1323108673 -19.226522446 0.59533751011 -2.6622107029 -9.660785675 3.4017335793e-07
          2.8476655483 -18.943267822 1.6227770061e-07 -1.9444748163 -4.516767025 0.10158413649
          -0.54194974899 -16.793085098 -0.97486501932 -1.0403399467 -5.3258285522 0.068260855973
          9.0626058578 -22.279384613 -0.5771176219 -1.5690528154 -14.757217407 -1.1810313463
          15.035506248 -22.883008957 -1.6385850188e-07 0 0 0
          -0.49756973982 -16.691429138 -0.47478699684 12.023756981 -22.57400322 -7.9040759715e-08
          -0.51416480541 -2.9629602432 9.1819899239e-08 9.0746631622 -22.296985626 -0.28614336252
          -1.2711138725 -5.4330534935 -0.043662756681 -1.5117712021 -14.645215988 -0.59243774414
          -1.0019741058 -13.85392952 0.99799096584 -0.4708917737 -16.683507919 2.7112031376e-07
          -2.2414586544 -12.905925751 -1.4164292812 -2.6872751713 -9.6976060867 0.72261703014
          1.0211567879 -19.187086105 -0.75688576698 9.0792484283 -22.300397873 5.2725646071e-09
          5.3918399811 -19.039964676 0.56418281794 2.8448753357 -18.943563461 0.29596549273
          -1.4850568771 -14.623476028 3.0670096862e-07 -1.2697337866 -5.4719781876 1.9301829468e-07
          -3.1925959587 -6.8987498283 1.2950700521 15.030676842 -22.87578392 0.32207295299
          6.1914682388 -22.087882996 -0.55364722013 -2.1716742516 -12.781968117 -0.71639686823
          -2.2411863804 -8.0012531281 -1.0723114014 1.0452884436 -19.11098671 -0.36705344915
          0.42861223221 -16.180316925 0.75772047043 -1.9798141718 -11.811378479 1.2049418688
          0 0 0 -2.3691556454 -8.0837955475 -0.63447773457
          12.018651009 -22.567546844 0.30490702391 -0.48054820299 -2.9330170155 -0.10112883896
          6.2003283501 -22.086992264 -0.27617225051 -2.1400709152 -12.755292892 3.3283077983e-07
          1.0634593964 -19.109947205 2.2745382466e-07 -0.49756965041 -16.691429138 0.47478756309
          6.2040295601 -22.086902618 8.8215855953e-08 -2.2831351757 -8.0454616547 3.1772336229e-07
          9.0746631622 -22.296987534 0.28614336252 -1.2711139917 -5.4330534935 0.043663144112
          -1.5117710829 -14.645216942 0.59243839979 -2.7166218758 -9.8586587906 1.4161827564
          2.8395316601 -18.973117828 0.59510427713 3.5322523117 -22.009511948 -0.59077209234
          15.014842987 -22.85300827 0.64625841379 0 0 0
          -2.3471851349 -11.199496269 -1.678071022 -0.42945212126 -2.953004837 -0.22396707535
          12.003668785 -22.543985367 0.61362332106 -2.1716742516 -12.781968117 0.71639752388
          1.0452884436 -19.11098671 0.36705389619 3.5402238369 -21.975460052 -0.29380246997
          -1.1860727072 -17.627119064 -1.1238875389 -2.2114207745 -11.132260323 -0.83367705345
          -2.3691558838 -8.0837955475 0.63447844982 6.2003278732 -22.086994171 0.27617242932
          -1.1208715439 -17.539077759 -0.56368798018 -0.059069104493 -19.70485878 -0.93378067017
          -1.8413621187 -15.86764431 -1.3522517681 16.078029633 -25.924846649 -0.62923961878
          0 0 0 13.009260178 -25.622852325 -0.5988637805
          -0.54194962978 -16.793085098 0.97486555576 -1.0403398275 -5.3258285522 -0.068260520697
          9.0626049042 -22.279384613 0.5771176219 -1.7489010096 -15.783909798 -0.68043380976
          -0.010621812195 -19.618478775 -0.45938774943 -1.5690526962 -14.757217407 1.1810319424
          16.087146759 -25.946081161 -0.31364393234 0 0 0
          -2.1663384438 -11.094786644 3.2176791365e-07 3.5435135365 -21.973165512 1.6834593453e-07
          -0.029487330467 -3.0628852844 0.02452349104 13.018089294 -25.644330978 -0.29777917266
          -0.025537749752 -3.0411522388 0.010681401938 -1.094379425 -17.520978928 3.1116789501e-07
          9.9772014618 -25.35890007 -0.56597602367 -1.7164163589 -15.765752792 3.2624865298e-07
          0.014047170058 -19.606969833 2.8029873533e-07 16.090385437 -25.952718735 -1.8369759403e-07
          0 0 0 -0.053740985692 -5.6856832504 0.025260519236
          9.9854431152 -25.374477386 -0.28088915348 13.021379471 -25.650156021 -9.1469317454e-08
          -2.241458416 -12.905925751 1.4164299965 1.0211567879 -19.187086105 0.75688624382
          -0.026294503361 -3.0765030384 3.3756588635e-08 -0.055396329612 -5.7783522606 0.013479137793
          6.1914682388 -22.087882996 0.55364739895 -2.2411866188 -8.0012531281 1.0723122358
          -1.8882126808 -14.284591675 -1.5700087547 1.6364431381 -22.180868149 -0.74237072468
          -2.2114207745 -11.132260323 0.8336777091 3.5402238369 -21.975460052 0.2938028276
          -1.7108286619 -14.300181389 -0.77550971508 1.6655067205 -22.109287262 -0.36202600598
          -1.1208714247 -17.539077759 0.56368863583 9.9889583588 -25.377536774 6.4512789555e-10
          -0.055626098067 -5.831340313 7.4872517075e-08 6.9961218834 -25.155536652 -0.54632508755
          -1.7489008904 -15.783909798 0.68043446541 -0.010621714406 -19.618478775 0.45938831568
          16.087146759 -25.946081161 0.31364357471 0 0 0
          -0.071823514998 -8.3161582947 0.016243766993 7.003818512 -25.154226303 -0.2723672986
          13.018089294 -25.644330978 0.29777899384 -0.081353962421 -8.6930561066 0.0023796348833
          -1.6685973406 -14.269888878 3.0199726098e-07 1.6833447218 -22.105112076 2.3725213794e-07
          -0.025537749752 -3.0411522388 -0.010681332089 9.9854431152 -25.374477386 0.28088915348
          7.0071372986 -25.154043198 9.0910965866e-08 -0.078500688076 -8.6582021713 1.1593064642e-07
          3.5322523117 -22.009513855 0.59077244997 -0.79177039862 -20.417016983 -1.0492144823
          -0.055396337062 -5.7783522606 -0.013478982262 -2.3471851349 -11.199497223 1.6780716181
          -1.4996935129 -18.662269592 -1.2490479946 -0.72490656376 -20.351844788 -0.52677386999
          -1.1860724688 -17.627119064 1.1238882542 -1.3991051912 -18.617565155 -0.62654137611
          -1.7108285427 -14.300181389 0.77551031113 1.6655067205 -22.109287262 0.36202651262
          -0.059068955481 -19.70485878 0.93378120661 -1.8413619995 -15.86764431 1.3522523642
          -0.10001999885 -12.249518394 -0.035677295178 4.2404875755 -25.054258347 -0.58241182566
          16.078029633 -25.924848557 0.62923926115 0 0 0
          13.009260178 -25.622852325 0.59886360168 -0.094491332769 -12.821907997 -0.018645279109
          -0.70160210133 -20.335870743 3.206475867e-07 -1.5242849588 -17.183006287 -1.3832194805
          0.46935769916 -22.590930939 -0.88493382931 4.2504043579 -25.02189064 -0.28960335255
          -0.029487291351 -3.0628852844 -0.024523416534 -1.3706285954 -18.604730606 3.2622679669e-07
          7.003818512 -25.154226303 0.27236747742 -0.081353984773 -8.6930561066 -0.0023793897126
          0.51854723692 -22.521121979 -0.43813470006 -1.3442800045 -17.274311066 -0.68232834339
          9.9772014618 -25.35890007 0.56597602367 -0.092644244432 -12.697300911 1.4480849586e-07
          4.2538619041 -25.019428253 1.7733266588e-07 -0.053740952164 -5.6856832504 -0.025260366499
          0.54051434994 -22.508398056 2.9409250146e-07 17.121217728 -29.033010483 -0.62236523628
          0 0 0 -1.308671236 -17.252922058 2.931714107e-07
          17.125225067 -29.05484581 -0.31036710739 0 0 0
          -0.72490644455 -20.351846695 0.52677452564 13.997680664 -28.733617783 -0.5915222168
          -1.8882125616 -14.284591675 1.5700093508 1.6364432573 -22.180870056 0.74237120152
          0.3687749505 -2.9437301159 -0.17848749459 -1.399105072 -18.617565155 0.62654203176
          14.001941681 -28.755313873 -0.29443305731 0.42754268646 -2.9207446575 -0.080920904875
          6.9961218834 -25.155536652 0.54632526636 17.12733078 -29.061689377 -2.0701304493e-07
          -0.094491355121 -12.821907997 0.018645592034 10.886117935 -28.466840744 -0.55942958593
          0.9387254715 -5.3167624474 -0.015197479166 4.2504043579 -25.02189064 0.28960371017
          0 0 0 2.2880992889 -25.167621613 -0.71948218346
          -0.088565275073 -15.253553391 -0.041517276317 -0.071823500097 -8.3161582947 -0.0162435323
          1.1650589705 -5.416864872 0.06678738445 10.891835213 -28.483110428 -0.27803117037
          14.00387001 -28.761384964 -1.0619086765e-07 0.51854735613 -22.521121979 0.43813529611
          -0.081420652568 -15.811867714 -0.021317409351 2.3202772141 -25.105270386 -0.35211700201
          -1.3442798853 -17.274311066 0.68232893944 0.46010559797 -2.9497151375 -1.4617580923e-08
          -1.1678688526 -21.301832199 -1.1220154762 10.894497871 -28.486839294 -4.8762078819e-09
          -0.7917702198 -20.417016983 1.0492151976 1.1656718254 -5.4552059174 -3.8336505526e-08
          -0.07959151268 -15.725452423 1.6631643973e-07 -1.0702881813 -21.295387268 -0.56231683493
          2.337382555 -25.100385666 2.5227689093e-07 -1.4996933937 -18.6622715 1.2490485907
          17.125225067 -29.05484581 0.31036669016 7.812892437 -28.24887085 -0.53978377581
          -1.2406535149 -19.825372696 -1.1699616909 0 0 0
          2.0812232494 -7.9700574875 1.0797898769 -0.34890413284 -23.151859283 -0.96523326635
          2.2119271755 -8.0618934631 0.6431286931 7.8201265335 -28.250589371 -0.26912206411
          14.001941681 -28.755313873 0.29443284869 -1.0818933249 -19.973239899 -0.57698374987
          -0.28364208341 -23.111743927 -0.48556652665 0.42754271626 -2.9207446575 0.080920875072
          -0.1000200212 -12.249518394 0.035677656531 4.2404875755 -25.054258347 0.58241218328
          -1.0490134954 -21.286773682 3.3603984662e-07 -1.5242848396 -17.183006287 1.3832199574
          0.46935787797 -22.590930939 0.88493442535 7.8229722977 -28.251543045 9.4699906583e-08
          10.891835213 -28.483110428 0.27803114057 -1.0565129519 -19.961439133 2.9716954941e-07
          1.1650589705 -5.416864872 -0.066787466407 2.1253426075 -8.0224399567 -9.8609760357e-08
          -0.081420630217 -15.811867714 0.021317757666 2.3202772141 -25.105270386 0.35211750865
          -0.26500990987 -23.098789215 3.3740141703e-07 1.0593065023 -25.459465027 -0.83064728975
          -0.08042216301 -18.018035889 -0.043203424662 1.1084924936 -25.408798218 -0.41313847899
          -0.073482304811 -18.539054871 -0.022040635347 17.121217728 -29.033010483 0.62236481905
          0 0 0 -1.0702880621 -21.295389175 0.56231755018
          2.2263076305 -11.191317558 1.7090555429 4.972820282 -28.118013382 -0.56989741325
          2.0801911354 -11.133170128 0.85023075342 13.997680664 -28.733617783 0.59152197838
          0.36877498031 -2.9437301159 0.17848747969 4.9846916199 -28.091684341 -0.28337836266
          7.8201265335 -28.250589371 0.26912224293 -1.0818932056 -19.973241806 0.57698434591
          2.2119271755 -8.0618934631 -0.64312893152 -0.2836419642 -23.111743927 0.4855671823
          1.1272727251 -25.397600174 3.1500317732e-07 -0.071897722781 -18.489545822 1.9412946983e-07
          10.886117935 -28.466842651 0.55942958593 0.9387255311 -5.3167624474 0.015197429806
          2.2880995274 -25.167621613 0.71948266029 2.0343768597 -11.09249115 -6.5546316819e-08
          -0.08856523782 -15.253553391 0.041517652571 4.9880003929 -28.090522766 1.8983368477e-07
          18.159114838 -32.180854797 -0.6234318018 0 0 0
          -1.1678686142 -21.301834106 1.1220160723 1.1084926128 -25.408798218 0.41313910484
          0 0 0 14.979389191 -31.880802155 -0.58944487572
          -0.98872470856 -22.245504379 -0.95697879791 -0.073482260108 -18.539054871 0.022041033953
          0.79357022047 -2.6300523281 -0.34567543864 -0.80022221804 -23.838817596 -0.98155725002
          18.159492493 -32.205322266 -0.31107839942 7.812892437 -28.24887085 0.53978395462
          14.980528831 -31.904865265 -0.29373350739 0.88600432873 -2.5985622406 -0.13776913285
          -1.2406532764 -19.825372696 1.1699622869 -0.86278790236 -22.429843903 -0.47297754884
          2.0812232494 -7.9700574875 -1.0797901154 2.9883813858 -28.159029007 -0.6883995533
          2.0801911354 -11.133170128 -0.85023087263 -0.34890392423 -23.151861191 0.965233922
          1.7719758749 -14.300963402 1.5882562399 4.9846916199 -28.091684341 0.28337872028
          -0.71237772703 -23.870201111 -0.49301102757 1.583419323 -14.332866669 0.78502422571
          3.0236997604 -28.109645844 -0.33793267608 11.794837952 -31.609487534 -0.55530202389
          18.160902023 -32.213088989 -2.3582120434e-07 1.8199594021 -4.4872646332 0.12002976239
          0 0 0 11.799229622 -31.628839493 -0.27637758851
          2.1366946697 -4.5757894516 0.19278107584 14.981528282 -31.911952972 -1.2488072798e-07
          0.16433209181 -25.854654312 -0.87393885851 -0.84894186258 -22.429468155 3.1507130416e-07
          -0.69927603006 -23.867733002 3.5683328292e-07 -0.075072795153 -20.503278732 -0.042425598949
          0.92738437653 -2.6371190548 -5.8761038702e-08 0.22677478194 -25.842498779 -0.44093707204
          3.0397815704 -28.106046677 2.7404598768e-07 -0.069456234574 -20.976020813 -0.021556258202
          1.5406618118 -14.299983978 6.633726457e-09 1.0593067408 -25.459466934 0.8306478858
          11.801310539 -31.634038925 -1.2529739912e-08 -0.080422066152 -18.018035889 0.043203834444
          2.0785806179 -4.5432252884 -1.1735838257e-07 8.642115593 -31.377056122 -0.5320315361
          18.159492493 -32.205322266 0.31107792258 0.24043644965 -25.834962845 3.6326304098e-07
          3.1010751724 -6.8389148712 1.3250955343 2.226307869 -11.191317558 -1.7090556622
          -0.068422563374 -20.95775032 2.2789268428e-07 4.9728198051 -28.118013382 0.56989783049
          0 0 0 8.6496295929 -31.384483337 -0.26537001133
          3.1457333565 -6.6622662544 0.69384759665 14.980528831 -31.904865265 0.29373323917
          -0.86278778315 -22.429843903 0.47297820449 -0.71237754822 -23.870201111 0.49301174283
          0.88600432873 -2.5985622406 0.13776902854 3.0236997604 -28.109645844 0.33793321252
          1.5834194422 -14.332866669 -0.78502422571 11.799229622 -31.628839493 0.27637755871
          8.652053833 -31.387447357 9.8574737706e-08 1.7177772522 -28.321273804 -0.76821398735
          1.4116854668 -17.218955994 1.385338068 3.1292803288 -6.6132721901 -1.5946648091e-07
          2.1366949081 -4.5757894516 -0.19278131425 1.2221566439 -17.331914902 0.68340009451
          0.22677493095 -25.842498779 0.44093778729 1.7675786018 -28.292005539 -0.38377043605
          -0.069456167519 -20.976020813 0.021556718275 5.731859684 -31.213294983 -0.55185848475
          18.159114838 -32.180854797 0.62343132496 0 0 0
          2.6335651875 -9.8170194626 1.4570354223 5.7461500168 -31.196289062 -0.27452173829
          14.979389191 -31.880802155 0.5894446373 2.6009771824 -9.6492271423 0.74580460787