<?xml version="1.0"?>
<VTKFile type="UnstructuredGrid" version="0.1" byte_order="LittleEndian" header_type="UInt32" compressor="vtkZLibDataCompressor">
  <UnstructuredGrid>
    <Piece NumberOfPoints="6405" NumberOfCells="4800">
      <PointData>
        <DataArray type="Float32" Name="DISPLACEMENT" NumberOfComponents="3" ComponentName0="X-DISPLACEMENT" ComponentName1="Y-DISPLACEMENT" ComponentName2="Z-DISPLACEMENT" format="ascii" RangeMin="0" RangeMax="328.72702501">
          0 0 0 0 0 0
          2.6145036221 -1.5612744093 -1.1955285072 0 0 0
          1.5680743456 -0.8975494504 -0.84695756435 0 0 0
          2.4009525776 -1.7631932497 -0.47040516138 1.3676282167 -1.0674397945 -0.34511631727
          0 0 0 4.7113361359 -3.1262202263 -1.2102957964
          0 0 0 4.6533060074 -3.3533277512 -0.61902213097
          3.1467080116 -2.6219673157 -0.94467997551 0 0 0
          0 0 0 2.4125344753 -1.8226394653 -2.6402416253e-08
          0.92649269104 -0.58523976803 -0.54997330904 1.3645433187 -1.0956498384 -2.3156958573e-09
          3.0803539753 -2.8060083389 -0.4809885323 0.78197699785 -0.74448496103 -0.22855699062
          4.6033530235 -3.4143674374 -1.15019132e-08 1.9047663212 -2.2460889816 -0.67401820421
          0 0 0 3.0413267612 -2.8622262478 2.9392525747e-08
          1.8266044855 -2.409378767 -0.34618258476 0 0 0
          6.5505819321 -5.2262310982 -1.1086390018 0 0 0
          0.77929908037 -0.76682770252 1.3390569542e-08 0 0 0
          0 0 0 2.4009525776 -1.7631933689 0.47040513158
          4.6045804024 -4.7639575005 -0.90645104647 6.5767807961 -5.3846263885 -0.56371217966
          0.21630819142 -0.46114486456 -0.23580095172 1.3676282167 -1.0674397945 0.34511631727
          4.6227245331 -4.9105887413 -0.46133187413 0.094361953437 -0.63042831421 -0.1193183884
          1.7988078594 -2.4567217827 6.093225835e-08 4.6533060074 -3.3533277512 0.61902213097
          0 0 0 0 0 0
          0.62393343449 -2.0465848446 -0.43495482206 2.9745440483 -4.4253211021 -0.71956425905
          6.559258461 -5.4397945404 3.5476112714e-08 3.0803539753 -2.8060083389 0.48098862171
          2.9573979378 -4.556892395 -0.36499682069 0.78197699785 -0.74448496103 0.22855702043
          4.6133189201 -4.9582467079 9.173028559e-08 0.53575587273 -2.1951076984 -0.2275723666
          0.07851601392 -0.65591025352 2.6871816772e-08 0 0 0
          8.1868085861 -7.5936970711 -0.96337372065 0 0 0
          5.975903511 -7.1788196564 -0.83021038771 1.8266044855 -2.409378767 0.34618270397
          8.2404851913 -7.6990637779 -0.48835548759 2.6145038605 -1.5612745285 1.1955285072
          0 0 0 0 0 0
          0.51724082232 -2.2415671349 8.751724323e-08 2.9484050274 -4.5992875099 1.3892608308e-07
          -0.37472087145 -0.5983569622 -0.022357420996 6.0218176842 -7.2816462517 -0.41862103343
          1.5680743456 -0.89754951 0.84695762396 1.3403759003 -4.1906204224 -0.55797070265
          0 0 0 6.5767812729 -5.3846263885 0.56371223927
          -0.48113065958 -0.75465917587 -0.028786536306 1.3039462566 -4.3060302734 -0.27998107672
          4.6227245331 -4.9105887413 0.46133205295 0.09436198324 -0.63042831421 0.11931844056
          4.0661692619 -6.8562378883 -0.70274394751 -0.39062148333 -2.0709354877 -0.2806660831
          8.2407464981 -7.7360081673 1.131292251e-07 4.7113366127 -3.1262204647 1.2102957964
          0 0 0 0 0 0
          4.0821576118 -6.9527816772 -0.35369241238 3.14670825 -2.6219673157 0.94468009472
          6.0290894508 -7.3173303604 1.8102322485e-07 -0.46734431386 -2.1946628094 -0.13884674013
          0.92649281025 -0.58523982763 0.54997342825 -0.50110912323 -0.80284935236 3.8857013607e-08
          1.2954396009 -4.3437542915 1.8301814464e-07 2.9573979378 -4.5568928719 0.36499711871
          0.53575599194 -2.1951076984 0.22757256031 4.0839152336 -6.9861893654 2.4176651436e-07
          1.9047665596 -2.24608922 0.67401838303 -0.47195604444 -2.2446165085 1.1900782937e-07
          2.2262079716 -6.611181736 -0.58691096306 8.2404851913 -7.6990637779 0.4883556962
          6.5505819321 -5.226231575 1.1086391211 0 0 0
          9.6388406754 -10.119039536 -0.84220939875 0 0 0
          0 0 0 -0.053825754672 -4.0999689102 -0.40016451478
          2.2244098186 -6.7004666328 -0.29166102409 9.692360878 -10.187455177 -0.4239590168
          7.2516446114 -9.7386608124 -0.75376671553 6.021818161 -7.2816467285 0.41862139106
          -1.2220574617 -0.83775931597 0.15532453358 0 0 0
          4.6045808792 -4.7639579773 0.90645122528 0.21630829573 -0.46114489436 0.23580104113
          -0.08569046855 -4.2051272392 -0.20338492095 -0.48113059998 -0.75465917587 0.028786618263
          -1.3745515347 -0.96412444115 0.028312690556 1.3039464951 -4.3060307503 0.27998143435
          7.2996220589 -9.8096656799 -0.37735250592 4.0821580887 -6.9527816772 0.35369291902
          2.2230501175 -6.7296032906 3.0092763836e-07 9.7004241943 -10.212130547 2.1794512861e-07
          -1.5102459192 -2.2531673908 -0.210707739 -0.46734416485 -2.1946628094 0.13884699345
          0 0 0 5.1330132484 -9.4292879105 -0.66193211079
          0.6239336729 -2.046585083 0.43495506048 2.9745442867 -4.4253211021 0.71956455708
          -0.088507018983 -4.2398371696 2.3252813719e-07 7.3116369247 -9.8342847824 2.9357002518e-07
          -1.4025182724 -1.012966156 5.7057981451e-08 -1.5948115587 -2.3285696507 -0.096343077719
          5.1585698128 -9.4989776611 -0.33133336902 8.1868085861 -7.5936975479 0.96337401867
          0 0 0 0.47345295548 -6.455496788 -0.44311499596
          5.9759039879 -7.1788196564 0.83021074533 -1.5956251621 -2.3724913597 1.4638560231e-07
          0.45922324061 -6.5436177254 -0.22721511126 5.1647782326 -9.5223312378 3.6165167216e-07
          -0.37472069263 -0.5983569622 0.022357545793 2.2244100571 -6.7004666328 0.29166162014
          3.1227824688 -9.1919584274 -0.56970512867 9.692360878 -10.187455177 0.42395946383
          -1.3576494455 -4.218832016 -0.3421831131 1.3403762579 -4.1906204224 0.55797111988
          0 0 0 -0.085690267384 -4.2051272392 0.20338538289
          3.1303913593 -9.2580575943 -0.28513473272 -1.3745514154 -0.96412444115 -0.028312571347
          -1.40523839 -4.2837610245 -0.15858571231 7.2996225357 -9.8096656799 0.37735310197
          4.0661697388 -6.8562378883 0.70274448395 -0.3906211555 -2.0709354877 0.28066635132
          10.939732552 -12.738098145 -0.75058555603 0 0 0
          0.45843565464 -6.5687255859 3.5913171814e-07 8.4323940277 -12.390434265 -0.68996989727
          10.983869553 -12.784086227 -0.37623092532 0 0 0
          -2.3267009258 -1.0992515087 0.21205244958 8.4725379944 -12.439856529 -0.34406104684
          3.1331877708 -9.2788705826 4.270372358e-07 -2.5051164627 -1.1698054075 0.057899262756
          -1.5948114395 -2.3285698891 0.096343383193 -1.4040167332 -4.3201384544 2.6790547736e-07
          5.1585698128 -9.4989786148 0.33133408427 6.1430559158 -12.103496552 -0.62308722734
          -2.6572189331 -2.5083019733 -0.25835806131 10.993331909 -12.80062294 3.4693673001e-07
          0 0 0 -2.7624237537 -2.5082271099 -0.10759478062
          6.1668348312 -12.151881218 -0.31081685424 8.4841585159 -12.456705093 4.2634303554e-07
          -2.4617340565 -1.2449182272 6.3988636612e-08 2.2262084484 -6.611181736 0.58691161871
          1.096060276 -9.0247097015 -0.47521486878 9.638841629 -10.119040489 0.84220987558
          0 0 0 -1.009726882 -6.5172848701 -0.4198243618
          0.45922347903 -6.5436177254 0.22721584141 -0.053825333714 -4.0999693871 0.40016499162
          7.2516450882 -9.7386608124 0.75376731157 -1.2220572233 -0.83775931597 -0.15532435477
          -1.047388792 -6.5632152557 -0.19608715177 1.0827109814 -9.0853319168 -0.24171712995
          3.1303915977 -9.2580575943 0.28513559699 -1.4052381516 -4.2837610245 0.15858624876
          6.1742119789 -12.167395592 4.9659149681e-07 -2.7590148449 -2.5399291515 1.4840684059e-07
          3.9684770107 -11.892463684 -0.55918937922 -2.4559264183 -4.5130643845 -0.42949622869
          -1.5102455616 -2.2531676292 0.21070808172 10.983869553 -12.784086227 0.37623161077
          5.1330137253 -9.4292879105 0.66193288565 0 0 0
          1.0841923952 -9.1047954559 4.8792128382e-07 -1.04350245 -6.5936079025 3.9732611867e-07
          3.9749276638 -11.933019638 -0.2803606987 8.4725379944 -12.439856529 0.34406191111
          -2.5348479748 -4.4939217567 -0.18423774838 -2.5051164627 -1.1698052883 -0.057899121195
          0.47345343232 -6.455496788 0.44311574101 3.9790949821 -11.947136879 5.6435345641e-07
          6.1668353081 -12.151881218 0.31081783772 -2.7624235153 -2.5082271099 0.107595101
          -2.5278449059 -4.5206685066 2.7251982715e-07 12.121005058 -15.417185783 -0.68524032831
          0 0 0 12.1540308 -15.449925423 -0.34271293879
          3.1227829456 -9.1919584274 0.56970602274 9.5237560272 -15.098964691 -0.64173579216
          -1.3576488495 -4.2188324928 0.34218367934 -0.51646488905 -9.0466995239 -0.49573469162
          -0.65060889721 -1.7269278765 0.32905369997 -1.0473885536 -6.5632152557 0.19608795643
          1.0827112198 -9.0853319168 0.24171811342 0 0 0
          9.5543260574 -15.134512901 -0.31929805875 -0.54658889771 -9.0646457672 -0.2362806946
          -0.63577789068 -1.7634195089 0.12309009582 1.7911452055 -11.73853302 -0.52553123236
          -2.0878653526 -6.8174891472 -0.56212425232 10.939733505 -12.738099098 0.75058627129
          0 0 0 8.4323940277 -12.390434265 0.68997073174
          12.162417412 -15.461654663 4.9755016107e-07 -2.1497678757 -6.7700128555 -0.24784915149
          1.7790224552 -11.764520645 -0.26138392091 -2.3267006874 -1.0992515087 -0.21205222607
          7.0915746689 -14.842974663 -0.59393823147 -1.5874261856 -3.0358233452 0.12891088426
          0 0 0 3.9749281406 -11.933019638 0.28036183119
          -2.5348477364 -4.4939222336 0.18423831463 9.5637464523 -15.146410942 5.7733797121e-07
          -0.53825074434 -9.0879821777 5.3564684777e-07 7.1121850014 -14.875579834 -0.29499831796
          -1.6904746294 -3.1036229134 0.037751160562 -0.6616640687 -1.7892005444 7.6843839736e-08
          6.1430563927 -12.103497505 0.62308824062 -2.6572184563 -2.5083019733 0.25835841894
          1.78066504 -11.777101517 6.3369589043e-07 -2.1375691891 -6.7916660309 4.1049739252e-07
          1.0960608721 -9.0247106552 0.47521591187 7.1188426018 -14.885838509 6.4881822937e-07
          -1.6726859808 -3.1089451313 2.2486223372e-07 -1.0097262859 -6.517285347 0.41982519627
          12.154031754 -15.449926376 0.34271392226 4.7809271812 -14.672489166 -0.55529427528
          0 0 0 -2.5720171928 -4.9590239525 -0.20053781569
          4.7904295921 -14.692483902 -0.27701899409 9.5543260574 -15.134512901 0.31929919124
          -0.63577783108 -1.7634195089 -0.12308993191 -0.54658854008 -9.0646457672 0.23628178239
          -2.6748549938 -5.0304880142 -0.15600055456 3.968477726 -11.892463684 0.5591905117
          0.088713347912 -11.736354828 -0.57276111841 1.7790228128 -11.764520645 0.26138520241
          -2.455925703 -4.5130648613 0.42949682474 -2.1497673988 -6.7700128555 0.24785000086
          -1.5976204872 -9.3457927704 -0.67033267021 0.075445353985 -11.726532936 -0.27686586976
          4.794508934 -14.701301575 7.1967281201e-07 7.1121854782 -14.875579834 0.29499959946
          -1.6904745102 -3.1036229134 -0.037750706077 -1.6323250532 -9.2777767181 -0.30774149299
          -2.5756993294 -5.0116319656 3.4918022607e-07 13.216197968 -18.132568359 -0.64231306314
          0 0 0 -0.41564124823 -1.9763906002 0.22852279246
          0.086721271276 -11.738461494 6.9838870331e-07 2.5576047897 -14.563907623 -0.56057626009
          10.544898987 -17.832702637 -0.60638093948 12.121006012 -15.417186737 0.68524128199
          0 0 0 0 0 0
          -1.6136698723 -9.2936372757 5.7126374031e-07 -2.8675038815 -7.2618956566 -0.72227007151
          13.23870945 -18.159069061 -0.3208270669 2.5579319 -14.56401062 -0.27578285336
          10.566547394 -17.861415863 -0.30140718818 9.5237560272 -15.098964691 0.64173692465
          -0.40873652697 -1.9627020359 0.10121829808 -0.51646417379 -9.0467004776 0.49573582411
          -0.6506087184 -1.7269278765 -0.32905346155 -2.9307425022 -7.161634922 -0.35203251243
          4.790430069 -14.692483902 0.27702045441 -2.6748547554 -5.0304880142 0.15600126982
          7.9823360443 -17.593330383 -0.56575948 1.7911459208 -11.738533974 0.52553254366
          -2.0878646374 -6.8174891472 0.56212514639 0 0 0
          -0.91240936518 -3.7086215019 0.13962359726 13.245331764 -18.168323517 6.6485461048e-07
          -0.4150749743 -1.980208993 1.1141177936e-07 2.5605676174 -14.570480347 7.9757580806e-07
          8.0003557205 -17.618030548 -0.28056737781 7.0915751457 -14.842975616 0.59393954277
          10.573400497 -17.870513916 7.4169435038e-07 -1.587425828 -3.0358233452 -0.12891045213
          -2.9163541794 -7.1526145935 4.6274107035e-07 -0.96879547834 -3.7327256203 0.083545282483
          0.07544580847 -11.726532936 0.27686730027 -1.6323246956 -9.2777767181 0.30774265528
          -1.0496292114 -12.039315224 -0.74026364088 8.0055065155 -17.62474823 8.1329147861e-07
          -0.97275537252 -3.7429578304 2.7307308414e-07 -1.0505832434 -11.96821022 -0.34927070141
          5.5375032425 -17.449790955 -0.53439903259 0 0 0
          -1.4551012516 -5.5322132111 0.008274375461 13.23870945 -18.159069061 0.320828408
          -0.40873649716 -1.9627020359 -0.10121806711 2.5579323769 -14.56401062 0.27578446269
          5.5515522957 -17.459453583 -0.26672583818 4.7809276581 -14.67249012 0.5552957654
          10.566547394 -17.861415863 0.30140867829 0.76586049795 -14.582395554 -0.61619055271
          -2.4495625496 -9.8108940125 -0.84255176783 -2.5720169544 -4.9590239525 0.20053863525
          -1.5438016653 -5.6080451012 0.0016541236546 -2.9307422638 -7.161634922 0.3520334363
          0.77080923319 -14.554896355 -0.30088064075 -2.4672458172 -9.7011404037 -0.41736146808
          -1.0304452181 -11.975156784 7.5627167462e-07 0.088714167476 -11.736354828 0.57276254892
          8.0003557205 -17.618030548 0.28056901693 -1.5976196527 -9.3457927704 0.67033392191
          5.5546598434 -17.463745117 8.8622738303e-07 -0.96879541874 -3.7327256203 -0.08354473114
          -1.5831415653 -5.6242265701 4.5721199626e-07 0.78246176243 -14.557981491 8.7366140633e-07
          -2.4576327801 -9.6871910095 6.5185378162e-07 -2.0197987556 -7.5700821877 -0.072688356042
          3.273175478 -17.398607254 -0.54901784658 13.216198921 -18.132568359 0.64231437445
          0 0 0 -1.0505828857 -11.96821022 0.34927225113
          -0.41564103961 -1.9763906002 -0.22852250934 -2.1543939114 -7.7114191055 -0.12710553408
          2.557605505 -14.563907623 0.56057786942 10.544898987 -17.832702637 0.6063824296
          3.28500247 -17.386381149 -0.2727560699 14.260858536 -20.877048492 -0.61861586571
          0 0 0 -2.8675034046 -7.2618956566 0.72227102518
          14.273909569 -20.902475357 -0.30860391259 -0.22399814427 -2.1039984226 0.13223020732
          11.522431374 -20.584224701 -0.58295959234 5.5515527725 -17.459453583 0.26672762632
          0 0 0 -1.5438015461 -5.6080451012 -0.0016532187583
          11.535588264 -20.611461639 -0.28971266747 -0.2081989944 -2.0745403767 0.058829799294
          0.77080971003 -14.554896355 0.30088239908 -2.4672455788 -9.7011404037 0.41736277938
          7.9823365211 -17.593332291 0.56576108932 -2.1544702053 -7.7079629898 6.6403760002e-07
          3.288179636 -17.389194489 9.6679173112e-07 -0.91240906715 -3.7086215019 -0.13962301612
          -0.47778007388 -14.868567467 -0.75421893597 -0.47406747937 -4.0071821213 0.1199272275
          8.8365430832 -20.34324646 -0.54117494822 -1.962552309 -12.519230843 -0.88688737154
          14.278605461 -20.910943985 8.4018785174e-07 0 0 0
          -0.45606574416 -14.804656982 -0.36331242323 11.540099144 -20.619491577 9.1133097158e-07
          -0.21353131533 -2.0796320438 1.419772957e-07 8.8499145508 -20.366405487 -0.26835215092
          -0.49439671636 -3.9995765686 0.067032061517 -1.947180748 -12.425040245 -0.44066604972
          -1.049628377 -12.039315224 0.7402651906 -0.43701243401 -14.804235458 9.3787792821e-07
          -2.8786692619 -10.238168716 -0.62245631218 -2.1543939114 -7.7114191055 0.12710684538
          1.429163456 -17.47271347 -0.62271827459 8.8539438248 -20.371543884 9.8159705431e-07
          5.5375041962 -17.449790955 0.53440082073 3.2850029469 -17.386381149 0.27275800705
          -1.9336785078 -12.40908432 8.4105681708e-07 -0.50009024143 -4.007557869 3.3511417996e-07
          -1.4551007748 -5.5322132111 -0.0082734907046 14.273910522 -20.902475357 0.30860561132
          6.2353544235 -20.196022034 -0.50648212433 -2.9475450516 -10.281115532 -0.39198005199
          -0.78753900528 -5.9350867271 0.083280988038 1.4462726116 -17.435462952 -0.30504527688
          0.76586139202 -14.582395554 0.61619234085 -2.4495618343 -9.8108949661 0.84255307913
          0 0 0 -0.83394241333 -5.9758677483 0.044240385294
          11.535588264 -20.611461639 0.28971448541 -0.20819893479 -2.0745403767 -0.058829516172
          6.2483873367 -20.203170776 -0.25325345993 -2.8564321995 -10.23760128 8.2903875409e-07
          1.4586478472 -17.435934067 1.0407111404e-06 -0.45606529713 -14.804657936 0.36331433058
          6.2510404587 -20.204931259 1.0547196325e-06 -0.84527558088 -5.9966750145 5.48486355e-07
          8.8499145508 -20.366405487 0.26835411787 -0.49439662695 -3.9995765686 -0.067031390965
          -1.9471803904 -12.425040245 0.44066771865 -2.0197985172 -7.5700821877 0.072689548135
          3.2731761932 -17.398607254 0.54901981354 3.8753023148 -20.172937393 -0.52089828253
          14.260859489 -20.877048492 0.61861753464 0 0 0
          -1.1756491661 -8.1360349655 0.0055598015897 -0.22399792075 -2.1039984226 -0.1322298795
          11.522431374 -20.584224701 0.58296138048 -2.9475450516 -10.281115532 0.39198172092
          1.4462730885 -17.435462952 0.30504736304 3.8896231651 -20.154983521 -0.2610720396
          -1.4445879459 -15.343536377 -0.8814008832 -1.2354382277 -8.2258729935 0.010772342794
          -0.83394235373 -5.9758677483 -0.044239301234 6.2483878136 -20.203170776 0.2532555759
          -1.4104546309 -15.265521049 -0.43530493975 0.096516430378 -17.741409302 -0.73313426971
          -2.772534132 -13.063521385 -0.99286550283 15.283624649 -23.659246445 -0.61007851362
          0 0 0 12.478881836 -23.367725372 -0.57177573442
          -0.47777923942 -14.86856842 0.75422084332 -0.47406715155 -4.0071825981 -0.11992655694
          8.8365440369 -20.34324646 0.54117691517 -2.758838892 -12.975970268 -0.50868624449
          0.12821629643 -17.685239792 -0.35886564851 -1.9625515938 -12.519231796 0.88688904047
          15.288787842 -23.68636322 -0.30413034558 0 0 0
          -1.2626041174 -8.2604055405 7.6674183447e-07 3.892875433 -20.155740738 1.1322207456e-06
          -0.056010235101 -2.1348156929 0.045336078852 12.484402657 -23.396032333 -0.28430604935
          -0.043838199228 -2.1007139683 0.019457697868 -1.3950046301 -15.250918388 1.003651505e-06
          9.6818180084 -23.117847443 -0.52844035625 -2.7457239628 -12.949715614 9.4267113582e-07
          0.14634647965 -17.680786133 1.0961841781e-06 15.291572571 -23.695121765 1.0120268144e-06
          0 0 0 -0.09819804877 -4.0872945786 0.0585597381
          9.6890726089 -23.14238739 -0.26205378771 12.486876488 -23.404275894 1.0759675888e-06
          -2.8786692619 -10.238168716 0.62245815992 1.4291642904 -17.472715378 0.62272036076
          -0.043596051633 -2.1025812626 1.7403912977e-07 -0.091154947877 -4.0669555664 0.031073786318
          6.2353549004 -20.196022034 0.5064842701 -0.78753864765 -5.935087204 -0.083279937506
          -1.5763680935 -10.550533295 0.004425348714 2.0296602249 -20.296875 -0.60932314396
          -1.2354382277 -8.2258729935 -0.010770848021 3.889623642 -20.154983521 0.26107430458
          -1.7049467564 -10.736871719 -0.092172078788 2.0535883904 -20.25601387 -0.2989500165
          -1.410454154 -15.265521049 0.4353069663 9.6922674179 -23.14799881 1.143260306e-06
          -0.088963150978 -4.0707044601 3.9098253524e-07 6.9230651855 -22.942487717 -0.49146819115
          -2.7588386536 -12.975970268 0.50868815184 0.12821675837 -17.685239792 0.35886785388
          15.288787842 -23.68636322 0.30413237214 0 0 0
          -0.13575226068 -6.0803284645 0.064915142953 6.9314608574 -22.952201843 -0.24502906203
          12.48440361 -23.396032333 0.28430819511 -0.13286580145 -6.0939350128 0.034976426512
          -1.7089500427 -10.767764091 9.8011275895e-07 2.0671217442 -20.255386353 1.1915085452e-06
          -0.043838154525 -2.1007139683 -0.019457355142 9.6890726089 -23.14238739 0.26205605268
          6.934305191 -22.954034805 1.2140742456e-06 -0.13311733305 -6.1115374565 6.1412941932e-07
          3.87530303 -20.172937393 0.5209005475 -0.92470663786 -18.189567566 -0.83868658543
          -0.09115485847 -4.0669555664 -0.03107300587 -1.1756489277 -8.1360349655 -0.0055583659559
          -2.2313528061 -15.920051575 -0.99680644274 -0.88470369577 -18.126192093 -0.4146515727
          -1.4445873499 -15.343536377 0.88140290976 -2.198130846 -15.836797714 -0.49915525317
          -1.7049468756 -10.736871719 0.092174008489 2.0535888672 -20.25601387 0.29895240068
          0.096517242491 -17.741409302 0.73313641548 -2.7725334167 -13.063521385 0.99286735058
          -0.16678319871 -8.2706661224 0.073207862675 4.4192233086 -22.897434235 -0.50046253204
          15.283624649 -23.659246445 0.61008054018 0 0 0
          12.478881836 -23.367725372 0.57177788019 -0.16966699064 -8.3419647217 0.036640595645
          -0.86855441332 -18.114210129 1.1342623338e-06 -2.4872112274 -13.636369705 -0.62995773554
          0.64590734243 -20.551218033 -0.70021253824 4.4313793182 -22.879325867 -0.25059658289
          -0.056009989232 -2.1348156929 -0.045335698873 -2.1816799641 -15.81525898 1.0577632565e-06
          6.9314608574 -22.952201843 0.24503149092 -0.13286571205 -6.0939350128 -0.034975215793
          0.67971521616 -20.501512527 -0.34588441253 -2.5707242489 -13.76328373 -0.41705292463
          9.6818180084 -23.117847443 0.52844262123 -0.16973134875 -8.3801670074 8.1698294707e-07
          4.4345440865 -22.879018784 1.2853312228e-06 -0.098197698593 -4.0872945786 -0.05855897069
          0.69683104753 -20.494941711 1.2287331401e-06 16.302732468 -26.491436005 -0.61200886965
          0 0 0 -2.4381680489 -13.730350494 1.0699875475e-06
          16.302215576 -26.52132988 -0.3052021265 0 0 0
          -0.88470333815 -18.126192093 0.41465383768 13.4292202 -26.198358536 -0.5705370903
          -1.5763680935 -10.550533295 -0.0044236886315 2.0296611786 -20.296875 0.60932552814
          0.11289043725 -2.0793483257 -0.042736705393 -2.1981306076 -15.836797714 0.49915736914
          13.429179192 -26.228694916 -0.28405827284 0.12024441361 -2.0459060669 -0.020203925669
          6.9230656624 -22.942487717 0.49147057533 16.303409576 -26.530971527 1.1679944691e-06
          -0.16966694593 -8.3419647217 -0.036638990045 10.538000107 -25.938861847 -0.52681410313
          0.28603875637 -3.9656348228 -0.0053410576656 4.4313797951 -22.879327774 0.25059914589
          0 0 0 2.5734746456 -23.025632858 -0.58776301146
          -0.20512381196 -10.851373672 0.062613636255 -0.13575191796 -6.0803284645 -0.064913980663
          0.31785291433 -3.9487161636 -0.0072171534412 10.540441513 -25.965845108 -0.26151159406
          13.430018425 -26.237880707 1.2248636949e-06 0.679715693 -20.501512527 0.34588688612
          -0.2064858228 -10.998354912 0.037093937397 2.599452734 -22.985284805 -0.28900390863
          -2.5707247257 -13.76328373 0.41705513 0.12561182678 -2.0489008427 2.120834921e-07
          -1.6891674995 -18.78437233 -0.96270591021 10.542516708 -25.973062515 1.2885560636e-06
          -0.9247059226 -18.189567566 0.8386887908 0.32692211866 -3.952883482 4.4688741241e-07
          -0.21134088933 -11.052750587 9.9070291526e-07 -1.6449506283 -18.707584381 -0.47612294555
          2.6134245396 -22.982839584 1.3284619627e-06 -2.2313523293 -15.920052528 0.9968085289
          16.302215576 -26.52132988 0.30520445108 7.6555528641 -25.729614258 -0.48949918151
          -2.5481178761 -16.713691711 -1.231374383 0 0 0
          0.52792811394 -5.8810415268 0.041588969529 -0.43378329277 -20.952939987 -0.78412801027
          0.57419615984 -5.9050636292 0.021463396028 7.6606106758 -25.74480629 -0.24302281439
          13.429179192 -26.228694916 0.28406068683 -2.499014616 -16.590631485 -0.60136294365
          -0.39438512921 -20.900371552 -0.39020034671 0.12024444342 -2.0459060669 0.020204335451
          -0.16678294539 -8.2706661224 -0.073206350207 4.4192237854 -22.897434235 0.50046509504
          -1.6264996529 -18.692178726 1.1381573586e-06 -2.4872117043 -13.636370659 0.62996023893
          0.6459081769 -20.551218033 0.70021492243 7.6634612083 -25.748580933 1.3563666243e-06
          10.540441513 -25.965847015 0.26151415706 -2.4619672298 -16.572854996 1.040782422e-06
          0.31785297394 -3.9487161636 0.0072180377319 0.58709454536 -5.9205465317 6.6353084094e-07
          -0.2064858526 -10.998354912 -0.037092003971 2.5994532108 -22.985286713 0.28900656104
          -0.3785456419 -20.890441895 1.2371602907e-06 1.1727312803 -23.249462128 -0.66594868898
          -0.2087290585 -13.541477203 0.091924294829 1.2048102617 -23.204370499 -0.3301294446
          -0.23009698093 -13.817440987 0.02152553387 16.302732468 -26.491436005 0.61201113462
          0 0 0 -1.6449502707 -18.707584381 0.47612521052
          0.85072684288 -8.0490427017 0.10832008719 4.9900484085 -25.625967026 -0.48806506395
          0.90894311666 -8.1212396622 0.05283087492 13.4292202 -26.198358536 0.57053953409
          0.11289067566 -2.0793483257 0.042737133801 5.0002417564 -25.613365173 -0.24312217534
          7.6606111526 -25.74480629 0.2430255115 -2.4990143776 -16.590631485 0.60136502981
          0.57419621944 -5.9050636292 -0.021462090313 -0.39438474178 -20.900371552 0.3902028203
          1.2202614546 -23.195882797 1.344406769e-06 -0.22527213395 -13.85233593 1.1143498568e-06
          10.538000107 -25.938861847 0.52681660652 0.28603905439 -3.9656348228 0.0053419084288
          2.5734755993 -23.025632858 0.58776563406 0.92949956656 -8.1489553452 8.3042647248e-07
          -0.20512372255 -10.851373672 -0.062611825764 5.0030207634 -25.613388062 1.4228240843e-06
          17.329523087 -29.382997513 -0.62042272091 0 0 0
          -1.6891669035 -18.78437233 0.96270817518 1.2048107386 -23.204370499 0.33013212681
          0 0 0 14.383850098 -29.08590889 -0.57504481077
          -1.9397777319 -19.636732101 -1.1973618269 -0.23009707034 -13.817440987 -0.021523348987
          0.30745458603 -1.929138422 -0.14096325636 -1.1985801458 -21.539505005 -0.90568864346
          17.325660706 -29.416372299 -0.30970597267 7.6555533409 -25.729614258 0.48950186372
          14.380721092 -29.119203568 -0.28678485751 0.31795045733 -1.9049943686 -0.063354857266
          -2.5481173992 -16.713691711 1.2313764095 -1.8426353931 -19.542928696 -0.57582741976
          0.52792835236 -5.8810415268 -0.041587729007 3.1106877327 -25.700809479 -0.56549495459
          0.90894311666 -8.1212387085 -0.052829235792 -0.43378263712 -20.952939987 0.78413045406
          1.2316300869 -10.457331657 0.14478123188 5.0002422333 -25.613365173 0.24312500656
          -1.1461501122 -21.474781036 -0.44662821293 1.3362263441 -10.607449532 0.13669753075
          3.1361012459 -25.662982941 -0.27832898498 11.409304619 -28.816961288 -0.52942103148
          17.325880051 -29.427257538 1.2960247204e-06 0.72932296991 -3.6129097939 -0.045439764857
          0 0 0 11.409570694 -28.847543716 -0.26338618994
          0.79094308615 -3.619007349 -0.033991191536 14.38049221 -29.12972641 1.3476302456e-06
          0.031383354217 -23.580364227 -0.73464184999 -1.8089853525 -19.525583267 1.0523037872e-06
          -1.1275480986 -21.465400696 1.1931539348e-06 -0.32701423764 -17.643659592 -0.063624128699
          0.32435879111 -1.9179130793 2.6260988761e-07 0.068095818162 -23.534528732 -0.36709740758
          3.1496067047 -25.658891678 1.4564807316e-06 -0.31431129575 -18.056997299 -0.029870215803
          1.3473433256 -10.647221565 9.2768539162e-07 1.1727321148 -23.249464035 0.66595131159
          11.410653114 -28.856637955 1.4094076732e-06 -0.20872914791 -13.541477203 -0.091922305524
          0.79812008142 -3.6233813763 5.0800440476e-07 8.4349422455 -28.581134796 -0.48858764768
          17.325660706 -29.416372299 0.30970856547 0.081544481218 -23.524505615 1.3229550859e-06
          1.2385079861 -5.4200940132 0.086343370378 0.85072702169 -8.0490427017 -0.10831855237
          -0.30704936385 -17.902130127 1.158983082e-06 4.9900488853 -25.625967026 0.48806786537
          0 0 0 8.4391956329 -28.603258133 -0.24268364906
          1.323440671 -5.4627890587 0.040586415678 14.380722046 -29.119203568 0.28678753972
          -1.8426351547 -19.542928696 0.57582956553 -1.1461497545 -21.474781036 0.44663059711
          0.31795045733 -1.9049943686 0.063355349004 3.1361017227 -25.662982941 0.2783319056
          1.3362263441 -10.607449532 -0.1366957128 11.409570694 -28.847543716 0.26338899136
          8.4414072037 -28.609609604 1.4773368093e-06 1.71215415 -25.860940933 -0.63477706909
          2.0272607803 -13.423764229 0.6044883728 1.3567094803 -5.476477623 7.0526306217e-07
          0.79094308615 -3.619007349 0.033992182463 2.128282547 -13.581723213 0.42529439926
          0.068096205592 -23.534528732 0.36710003018 1.7412345409 -25.820077896 -0.3151691854
          -0.31431141496 -18.056997299 0.029872460291 5.6308932304 -28.410747528 -0.47348961234
          17.329524994 -29.382997513 0.62042528391 0 0 0
          1.7419611216 -7.4177660942 0.17741239071 5.6414637566 -28.407777786 -0.23572821915
          14.383850098 -29.08590889 0.57504743338 1.853910923 -7.5178980827 0.15168197453