<?xml version="1.0"?>
<VTKFile type="UnstructuredGrid" version="0.1" byte_order="LittleEndian" header_type="UInt32" compressor="vtkZLibDataCompressor">
  <UnstructuredGrid>
    <Piece NumberOfPoints="6405" NumberOfCells="4800">
      <PointData>
        <DataArray type="Float32" Name="DISPLACEMENT" NumberOfComponents="3" ComponentName0="X-DISPLACEMENT" ComponentName1="Y-DISPLACEMENT" ComponentName2="Z-DISPLACEMENT" format="ascii" RangeMin="0" RangeMax="272.9043816">
          0 0 0 0 0 0
          2.337446928 -1.4889690876 -1.0672039986 0 0 0
          1.4395563602 -0.91462910175 -0.79506605864 0 0 0
          2.1458485126 -1.6490098238 -0.42088612914 1.2549669743 -1.0441970825 -0.3243278563
          0 0 0 4.158490181 -2.8284277916 -1.0693699121
          0 0 0 4.1109399796 -3.0088837147 -0.55125683546
          2.876942873 -2.3864092827 -0.87263935804 0 0 0
          0 0 0 2.1551117897 -1.699057579 6.9216707743e-07
          0.98996561766 -0.65288203955 -0.58320736885 1.2510547638 -1.067278266 3.2878878642e-07
          2.8234200478 -2.5297868252 -0.44496485591 0.8511968255 -0.76853847504 -0.23949824274
          4.066801548 -3.0587961674 1.7383785007e-06 1.9708665609 -2.0529708862 -0.6649929285
          0 0 0 2.7872874737 -2.5756738186 1.044789542e-06
          1.9128161669 -2.1806437969 -0.3405662477 0 0 0
          5.7647371292 -4.5341086388 -0.97839552164 0 0 0
          0.8466104269 -0.78649187088 -1.4762132139e-07 0 0 0
          0 0 0 2.1458485126 -1.649009347 0.42088752985
          4.2029256821 -4.1167464256 -0.81857198477 5.79301548 -4.6606850624 -0.498919487
          0.51078462601 -0.50328266621 -0.36804464459 1.2549674511 -1.0441963673 0.32432860136
          4.2268862724 -4.2357358932 -0.4170331955 0.40155735612 -0.61862289906 -0.16413365304
          1.8826596737 -2.217495203 2.26263424e-07 4.1109409332 -3.0088822842 0.55126041174
          0 0 0 0 0 0
          1.1187021732 -1.8704234362 -0.47264972329 2.9666261673 -3.7999942303 -0.65893125534
          5.7801170349 -4.7060651779 3.1245815535e-06 2.8234212399 -2.5297851562 0.44496703148
          2.9630537033 -3.910861969 -0.33558350801 0.85119754076 -0.76853770018 0.23949807882
          4.2195005417 -4.2745041847 2.0931124709e-06 1.0641860962 -1.9896029234 -0.24129636586
          0.39105924964 -0.63417237997 -7.7454615166e-07 0 0 0
          7.2136015892 -6.4428610802 -0.85118895769 0 0 0
          5.4420833588 -6.0684556961 -0.74050593376 1.9128175974 -2.180642128 0.34056678414
          7.2641682625 -6.5292496681 -0.43117296696 2.3374481201 -1.4889681339 1.0672055483
          0 0 0 0 0 0
          1.0439014435 -2.0243725777 -7.7763093032e-07 2.9533703327 -3.9441123009 9.5894665719e-07
          0.0098752006888 -0.51641345024 -0.1659180522 5.4864678383 -6.1543707848 -0.37329363823
          1.4395577908 -0.91462773085 0.79506713152 1.8031616211 -3.5869014263 -0.50138634443
          0 0 0 5.7930169106 -4.6606826782 0.49892583489
          -0.062159210443 -0.63836842775 -0.088443234563 1.7795006037 -3.6897408962 -0.25602716208
          4.2268881798 -4.2357335091 0.41703745723 0.40155860782 -0.61862194538 0.16413229704
          3.9515182972 -5.7731280327 -0.62846177816 0.18820521235 -1.8059408665 -0.27414524555
          7.266646862 -6.5595884323 4.7772568905e-06 4.1584920883 -2.828425169 1.0693737268
          0 0 0 0 0 0
          3.9687087536 -5.855907917 -0.31680083275 2.8769454956 -2.3864064217 0.87264180183
          5.4942727089 -6.183822155 3.4373695144e-06 0.13452425599 -1.9257035255 -0.14602917433
          0.98996680975 -0.65288031101 0.58320760727 -0.07594332844 -0.66420400143 -1.6869965975e-06
          1.7697411776 -3.7191774845 -3.4440128616e-07 2.9630556107 -3.9108593464 0.33558547497
          1.0641881227 -1.989601016 0.24129487574 3.9713487625 -5.8831777573 2.0019679141e-06
          1.9708690643 -2.05296731 0.66499370337 0.12129927427 -1.9604343176 -2.022847184e-06
          2.5546786785 -5.5659995079 -0.52302736044 7.2641701698 -6.5292468071 0.43118259311
          5.7647404671 -4.5341048241 0.97840213776 0 0 0
          8.502705574 -8.4907693863 -0.74499851465 0 0 0
          0 0 0 0.53970551491 -3.4648890495 -0.35884824395
          2.5476288795 -5.6409134865 -0.26359343529 8.5509119034 -8.5471830368 -0.3747343123
          6.5830149651 -8.1538639069 -0.67189627886 5.4864702225 -6.1543679237 0.37330061197
          -0.63828188181 -0.66290259361 0.0039630653337 0 0 0
          4.2029294968 -4.1167421341 0.81857651472 0.51078629494 -0.50328052044 0.36804375052
          0.49687185884 -3.5579595566 -0.18579137325 -0.062157586217 -0.63836711645 0.088440075517
          -0.73387479782 -0.77625656128 -0.016979500651 1.7795027494 -3.6897382736 0.25602650642
          6.6261644363 -8.2130804062 -0.33625599742 3.9687111378 -5.8559045792 0.31680491567
          2.5463426113 -5.6665010452 4.133016489e-07 8.5591468811 -8.567694664 6.6734528446e-06
          -0.69856840372 -1.9194487333 -0.19951795042 0.13452644646 -1.925701499 0.14602515101
          0 0 0 4.8999695778 -7.8841691017 -0.59721344709
          1.1187051535 -1.8704195023 0.47264841199 2.966629982 -3.7999892235 0.65893346071
          0.48725351691 -3.5863466263 -1.8484225848e-06 6.6376318932 -8.2339038849 5.0654321058e-06
          -0.75156837702 -0.81139165163 -3.2004554669e-06 -0.76662790775 -2.0012478828 -0.090767979622
          4.9231328964 -7.9421715736 -0.29879066348 7.2136063576 -6.4428553581 0.85119885206
          0 0 0 1.09258461 -5.4194288254 -0.44152650237
          5.4420881271 -6.0684499741 0.74051314592 -0.77039808035 -2.0430700779 -3.9139645196e-06
          1.0693744421 -5.4827151299 -0.21937698126 4.930079937 -7.9624471664 3.3725993944e-06
          0.0098770176992 -0.51641047001 0.16591534019 2.5476315022 -5.6409101486 0.26359432936
          3.3353223801 -7.6909856796 -0.52785819769 8.5509147644 -8.5471801758 0.37474772334
          -0.50630122423 -3.5084283352 -0.3117442131 1.803165555 -3.5868959427 0.50138580799
          0 0 0 0.49687436223 -3.5579566956 0.18578772247
          3.3409769535 -7.7433328629 -0.26420736313 -0.73387253284 -0.77625501156 0.016973337159
          -0.54561918974 -3.5681190491 -0.14846257865 6.6261672974 -8.2130765915 0.33626618981
          3.951523304 -5.7731218338 0.6284660697 0.18820849061 -1.8059362173 0.27414134145
          9.6530408859 -10.614863396 -0.66558897495 0 0 0
          1.0655777454 -5.5055699348 -1.3564299479e-06 7.6312699318 -10.309350014 -0.6164612174
          9.691614151 -10.65308094 -0.33394834399 0 0 0
          -1.5166640282 -0.84841871262 0.066842101514 7.6668338776 -10.351124763 -0.30758321285
          3.3429992199 -7.7626109123 1.5501731241e-06 -1.6499154568 -0.90954661369 0.014361200854
          -0.76662516594 -2.0012454987 0.09076026082 -0.54769617319 -3.599612236 -3.8721582314e-06
          4.9231362343 -7.9421677589 0.29879748821 5.799800396 -10.060441971 -0.56376773119
          -1.6386169195 -2.0907125473 -0.19910416007 9.7005558014 -10.667331696 8.7979087766e-06
          0 0 0 -1.7072222233 -2.1185317039 -0.089884996414
          5.8239364624 -10.102426529 -0.28129711747 7.6774497032 -10.36616993 6.9549537329e-06
          -1.6626578569 -0.94878613949 -5.5815803535e-06 2.5546834469 -5.5659928322 0.52302849293
          1.7794406414 -7.5412740707 -0.47298708558 8.5027112961 -8.4907627106 0.74501216412
          0 0 0 -0.14681383967 -5.3807587624 -0.37283620238
          1.0693776608 -5.482711792 0.21937434375 0.53970974684 -3.4648830891 0.35884475708
          6.5830211639 -8.1538572311 0.67190670967 -0.63827985525 -0.6628985405 -0.0039687617682
          -0.16205491126 -5.4334359169 -0.18540401757 1.7759023905 -7.5872182846 -0.23360052705
          3.3409800529 -7.7433290482 0.26421052217 -0.5456160903 -3.568116188 0.14845493436
          5.8314423561 -10.117070198 5.0349240155e-06 -1.7091044188 -2.148958683 -6.4924743128e-06
          4.1008138657 -9.8815441132 -0.51143223047 -1.5009874105 -3.6709730625 -0.311606884
          -0.69856458902 -1.9194433689 0.19951036572 9.691617012 -10.653077126 0.33396601677
          4.8999757767 -7.8841619492 0.59722048044 0 0 0
          1.7759263515 -7.6034083366 -4.3739058242e-07 -0.16210985184 -5.4537491798 -3.440922228e-06
          4.1139779091 -9.9195642471 -0.25584512949 7.6668372154 -10.351120949 0.30759719014
          -1.535793066 -3.6936504841 -0.14597268403 -1.6499125957 -0.90954482555 -0.014372139238
          1.0925900936 -5.4194216728 0.44152408838 4.1174869537 -9.9327383041 3.0024179978e-06
          5.8239402771 -10.102421761 0.28130725026 -1.7072188854 -2.1185293198 0.089872159064
          -1.5343737602 -3.7166140079 -6.5171811912e-06 10.698683739 -12.777283669 -0.61244171858
          0 0 0 10.726219177 -12.807106018 -0.30692631006
          3.3353283405 -7.6909780502 0.52786153555 8.6011791229 -12.495287895 -0.57409340143
          -0.50629633665 -3.5084218979 0.31173673272 0.30895060301 -7.4503154755 -0.39406129718
          -1.2087439299 -1.2220901251 0.55834591389 -0.16205142438 -5.433432579 0.18539717793
          1.7759059668 -7.5872144699 0.23359969258 0 0 0
          8.6277589798 -12.528717995 -0.2859916985 0.30062276125 -7.4957017899 -0.20150880516
          -1.2128936052 -1.3358045816 0.14212563634 2.4653844833 -9.7485761642 -0.46543633938
          -1.2551687956 -5.507142067 -0.36518236995 9.6530485153 -10.61485672 0.66560691595
          0 0 0 7.6312770844 -10.309342384 0.61647540331
          10.734220505 -12.818354607 1.1137770343e-05 -1.276293993 -5.5323953629 -0.17296116054
          2.4702944756 -9.7813796997 -0.23280623555 -1.5166615248 -0.84841322899 -0.066852636635
          6.6447691917 -12.268531799 -0.53082948923 -2.519256115 -2.2781774998 -0.16139903665
          0 0 0 4.1139812469 -9.9195594788 0.25585117936
          -1.5357894897 -3.6936471462 0.14595977962 8.6361713409 -12.54067421 9.0840276243e-06
          0.30186983943 -7.5087080002 -2.6348668598e-06 6.6672768593 -12.302159309 -0.26429498196
          -2.5919601917 -2.3027458191 -0.088961064816 -1.1471129656 -1.3383818865 -4.9063373808e-06
          5.7998070717 -10.060434341 0.5637781024 -1.6386123896 -2.09070611 0.19909140468
          2.4726741314 -9.7923316956 8.1413986663e-07 -1.2717484236 -5.552719593 -6.0783954723e-06
          1.7794470787 -7.5412659645 0.47298637033 6.6741433144 -12.313483238 6.954176115e-06
          -2.5592570305 -2.3232786655 -9.2757163657e-06 -0.14680799842 -5.3807516098 0.37282946706
          10.726222992 -12.80710125 0.306948632 4.819685936 -12.116661072 -0.48800104856
          0 0 0 -2.48290205 -3.889588356 -0.34041425586
          4.83654356 -12.145089149 -0.24340154231 8.6277627945 -12.528713226 0.28600993752
          -1.2128930092 -1.3358025551 -0.14213532209 0.30062642694 -7.4956979752 0.20150353014
          -2.526487112 -3.8818826675 -0.16201493144 4.1008205414 -9.8815355301 0.51143842936
          0.82042461634 -9.6503429413 -0.42180985212 2.4702980518 -9.7813749313 0.23280790448
          -1.5009819269 -3.6709654331 0.311594069 -1.2762902975 -5.532392025 0.1729490608
          -0.92334508896 -7.535007 -0.40272179246 0.81328362226 -9.6767158508 -0.21352741122
          4.8412628174 -12.154561996 4.7207322496e-06 6.667280674 -12.302155495 0.26430892944
          -2.5919570923 -2.3027427197 0.08894263953 -0.9379696846 -7.5525097847 -0.19315578043
          -2.5233714581 -3.8937110901 -9.6284857136e-06 11.679362297 -14.96202755 -0.58357596397
          0 0 0 -0.71139925718 -1.4955501556 0.42019310594
          0.81570756435 -9.6858348846 -1.563520982e-06 3.0985941887 -12.024019241 -0.45640209317
          9.5113954544 -14.694075584 -0.54445314407 10.698691368 -12.777275085 0.61246430874
          0 0 0 0 0 0
          -0.93071246147 -7.5708632469 -5.3266767281e-06 -2.2544128895 -5.7458987236 -0.41515803337
          11.696115494 -14.991744995 -0.29200965166 3.1080725193 -12.043092728 -0.22853912413
          9.5289115906 -14.726886749 -0.27084249258 8.601187706 -12.495280266 0.57411181927
          -0.66521018744 -1.5205568075 0.17843669653 0.30895712972 -7.4503068924 0.39405608177
          -1.208746314 -1.2220872641 -0.55835413933 -2.2844736576 -5.7315979004 -0.19495350122
          4.8365473747 -12.145084381 0.24341103435 -2.5264830589 -3.8818793297 0.16199579835
          7.4296317101 -14.487499237 -0.50010031462 2.4653916359 -9.7485675812 0.46543809772
          -1.2551625967 -5.5071339607 0.36517032981 0 0 0
          -1.3114142418 -2.5847425461 0.33750066161 11.70262146 -15.002547264 1.3681301425e-05
          -0.68263739347 -1.5577548742 -3.9586684579e-06 3.1119351387 -12.051273346 2.3578938908e-06
          7.4492168427 -14.51926136 -0.24822157621 6.6447768211 -12.268523216 0.53084367514
          9.534787178 -14.738059998 1.1433218788e-05 -2.5192525387 -2.2781701088 0.16138125956
          -2.2780675888 -5.7441210747 -9.2285536084e-06 -1.352881074 -2.7022094727 0.15981794894
          0.81328755617 -9.6767110825 0.21352434158 -0.93796569109 -7.5525054932 0.19314520061
          -0.51729375124 -9.6909704208 -0.43894329667 7.4546904564 -14.529201508 9.1122137746e-06
          -1.3465026617 -2.7200980186 -7.2440393524e-06 -0.52048134804 -9.6969671249 -0.21443030238
          5.4739413261 -14.372038841 -0.45928013325 0 0 0
          -2.0347466469 -3.9086170197 0.23675531149 11.696119308 -14.991740227 0.2920370698
          -0.6652097106 -1.5205554962 -0.17844414711 3.1080765724 -12.043087959 0.2285439074
          5.493355751 -14.395282745 -0.22807061672 4.8196935654 -12.116652489 0.48801073432
          9.5289163589 -14.726881981 0.27086541057 1.3974920511 -11.952611923 -0.45353317261
          -1.9542922974 -7.763188839 -0.4700474143 -2.482896328 -3.8895797729 0.34039521217
          -2.1185367107 -4.0596337318 0.05330003798 -2.2844693661 -5.7315940857 0.19493514299
          1.3991448879 -11.960463524 -0.22334828973 -1.969763875 -7.7403931618 -0.22358262539
          -0.51224058867 -9.7087135315 -4.2814940571e-06 0.8204318881 -9.6503334045 0.4218069911
          7.449221611 -14.519256592 0.24823985994 -0.92333811522 -7.5349979401 0.40271124244
          5.4978089333 -14.40289402 6.7076680352e-06 -1.3528807163 -2.7022070885 -0.15983243287
          -2.107698679 -4.063703537 -9.5403565865e-06 1.4023172855 -11.966190338 -1.452403211e-07
          -1.9593496323 -7.751721859 -8.4790008259e-06 -2.7853829861 -5.892305851 -0.11776808649
          3.6767344475 -14.332467079 -0.43975549936 11.679371834 -14.962018967 0.58360356092
          0 0 0 -0.5204770565 -9.6969623566 0.21442182362
          -0.71140140295 -1.4955488443 -0.4202003181 -2.8572492599 -5.9951510429 -0.12149340659
          3.0986020565 -12.024009705 0.45640707016 9.5114049911 -14.694067001 0.54447627068
          3.6922717094 -14.342236519 -0.21880064905 12.634745598 -17.17615509 -0.57578957081
          0 0 0 -2.2544064522 -5.7458896637 0.41513973475
          12.641705513 -17.211986542 -0.28757724166 -0.5090456605 -1.5157649517 0.37269198895
          10.385909081 -16.910326004 -0.52707737684 5.4933600426 -14.395277977 0.22808410227
          0 0 0 -2.1185359955 -4.0596308708 -0.053319025785
          10.394730568 -16.948486328 -0.26199620962 -0.43930602074 -1.513499856 0.15918518603
          1.3991494179 -11.960458755 0.22334808111 -1.9697595835 -7.7403888702 0.22356577218
          7.4296402931 -14.4874897 0.50011873245 -2.7682180405 -5.9619131088 -1.1386171536e-05
          3.6959638596 -14.347986221 4.2162746468e-06 -1.311416626 -2.5847399235 -0.33751377463
          -0.049452729523 -11.960058212 -0.45568522811 -0.99482369423 -2.7987709045 0.40056720376
          8.1639060974 -16.708122253 -0.47212964296 -1.6039998531 -9.9026823044 -0.50472187996
          12.646466255 -17.224264145 1.6414238416e-05 0 0 0
          -0.041984323412 -11.960289001 -0.2261775434 10.398233414 -16.96062088 1.3977994058e-05
          -0.44203147292 -1.528868556 -2.8959045721e-06 8.1789293289 -16.743722916 -0.23403437436
          -0.98746335506 -2.839682579 0.21474739909 -1.6025286913 -9.8787908554 -0.24240870774
          -0.51728606224 -9.6909599304 0.43893495202 -0.034858915955 -11.963670731 -2.8452579954e-06
          -2.880838871 -8.059056282 -0.5259771347 -2.8572473526 -5.9951477051 0.12147089839
          1.9998652935 -14.311756134 -0.4490172267 8.182934761 -16.753536224 1.1479089153e-05
          5.473950386 -14.372029305 0.45929378271 3.6922762394 -14.34223175 0.21880914271
          -1.5900889635 -9.8869743347 -7.384012406e-06 -0.97594505548 -2.8628025055 -5.8829091358e-06
          -2.0347473621 -3.9086136818 -0.23677279055 12.641709328 -17.211982727 0.28761011362
          6.0491213799 -16.612651825 -0.42169117928 -2.899750948 -8.0206623077 -0.2647459507
          -1.5123939514 -4.1940646172 0.35386571288 2.0127599239 -14.310761452 -0.22072988749
          1.397500515 -11.952602386 0.45353317261 -1.9542849064 -7.7631793022 0.47003057599
          0 0 0 -1.535545826 -4.2842440605 0.18848453462
          10.394735336 -16.948480606 0.262024194 -0.43930622935 -1.5134992599 -0.15919072926
          6.0677771568 -16.635969162 -0.20995768905 -2.8864634037 -8.0170145035 -1.1851872841e-05
          2.0173699856 -14.313503265 1.6233085489e-06 -0.041979677975 -11.960284233 0.22617188096
          6.0713143349 -16.642601013 8.9271206889e-06 -1.5361007452 -4.3130302429 -8.5228193711e-06
          8.1789340973 -16.743717194 0.23405738175 -0.9874638319 -2.8396816254 -0.21475891769
          -1.6025241613 -9.878786087 0.24239401519 -2.7853806019 -5.8922991753 0.11774831265
          3.6767430305 -14.332456589 0.43976417184 4.172393322 -16.615673065 -0.40490311384
          12.634754181 -17.176145554 0.57582259178 0 0 0
          -1.9274388552 -5.8359360695 0.32598349452 -0.50904852152 -1.5157648325 -0.37269756198
          10.385918617 -16.910316467 0.52710551023 -2.899746418 -8.0206575394 0.26472228765
          2.0127646923 -14.310756683 0.22073315084 4.190926075 -16.619989395 -0.20201204717
          -1.2202388048 -12.146705627 -0.51068037748 -1.9602912664 -5.9872660637 0.14186906815
          -1.5355459452 -4.28424263 -0.18850119412 6.0677819252 -16.63596344 0.20997561514
          -1.2080897093 -12.127438545 -0.24569042027 0.44920200109 -14.309584618 -0.45210680366
          -2.5729560852 -10.216188431 -0.57575899363 13.596755981 -19.445795059 -0.58449327946
          0 0 0 11.250815392 -19.173965454 -0.52209788561
          -0.049444206059 -11.960047722 0.45567959547 -0.99482703209 -2.7987706661 -0.40057811141
          8.1639156342 -16.708112717 0.47215282917 -2.5664906502 -10.174561501 -0.28325927258
          0.45764797926 -14.302471161 -0.22637400031 -1.6039918661 -9.902671814 0.50470727682
          13.595766068 -19.49121666 -0.29155090451 0 0 0
          -1.9858307838 -6.0105981827 -1.058039652e-05 4.1942820549 -16.623540878 6.3267093537e-06
          -0.39358112216 -1.501336813 0.29790124297 11.252077103 -19.220752716 -0.25963625312
          -0.31534099579 -1.476339221 0.12850689888 -1.1975718737 -12.132365227 -5.9050421441e-06
          8.8754320145 -18.958812714 -0.45421099663 -2.555488348 -10.172563553 -1.0767541426e-05
          0.46318355203 -14.301573753 -1.1278667671e-06 13.598771095 -19.506223679 1.9312969016e-05
          0 0 0 -0.71834689379 -2.8256797791 0.37676459551
          8.8848276138 -19.001991272 -0.22517800331 11.253723145 -19.235303879 1.6682979549e-05
          -2.8808312416 -8.0590457916 0.52595371008 1.9998744726 -14.311745644 0.44902056456
          -0.31367632747 -1.4811397791 -2.0350701107e-06 -0.67081272602 -2.8187708855 0.19949577749
          6.0491309166 -16.612642288 0.42170929909 -1.5123963356 -4.1940641403 -0.35388123989
          -2.2900438309 -7.6823120117 0.32212197781 2.5217881203 -16.641181946 -0.42227301002
          -1.9602906704 -5.9872636795 -0.14188984036 4.1909308434 -16.619983673 0.20202475786
          -2.3579936028 -7.8907532692 0.07860661298 2.537217617 -16.631177902 -0.20992305875
          -1.2080849409 -12.127433777 0.24567863345 8.8881626129 -19.01374054 1.4014792214e-05
          -0.65498024225 -2.8250505924 -4.4224020712e-06 6.5606865883 -18.843616486 -0.39257603884
          -2.5664858818 -10.174556732 0.2832378149 0.45765274763 -14.302466393 0.22637173533
          13.595770836 -19.491210938 0.29158955812 0 0 0
          -1.0170294046 -4.1729922295 0.42498025298 6.5749540329 -18.871376038 -0.19526579976
          11.252081871 -19.220746994 0.25966966152 -0.99410539865 -4.2052311897 0.22367416322
          -2.3598337173 -7.9034819603 -1.1886007087e-05 2.5418903828 -16.631362915 3.6467963582e-06
          -0.31534141302 -1.4763391018 -0.12851086259 8.8848323822 -19.00198555 0.2252060771
          6.5774831772 -18.878196716 1.1343844562e-05 -0.98899483681 -4.2209944725 -6.8342969826e-06
          4.1724028587 -16.615663528 0.40491595864 -0.80684661865 -14.439522743 -0.49360662699
          -0.67081356049 -2.818770647 -0.19950458407 -1.9274394512 -5.8359336853 -0.32600277662
          -2.2147703171 -12.450622559 -0.57590544224 -0.79227334261 -14.422229767 -0.24263447523
          -1.220230341 -12.146695137 0.51066857576 -2.1972432137 -12.415906906 -0.28029370308
          -2.3579926491 -7.8907499313 -0.078630045056 2.5372226238 -16.63117218 0.20993034542
          0.4492110014 -14.309574127 0.45210450888 -2.5729477406 -10.216176987 0.57573759556
          -1.2906476259 -5.716424942 0.46628049016 4.5766143799 -18.866111755 -0.37187838554
          13.596765518 -19.445785522 0.58453202248 0 0 0
          11.250825882 -19.17395401 0.52213138342 -1.285274148 -5.7936234474 0.24427080154
          -0.78349506855 -14.423374176 -4.1909465835e-06 -2.8623275757 -10.12215519 0.04031502828
          0.96314233541 -16.648429871 -0.45413887501 4.5952234268 -18.867046356 -0.18595568836
          -0.39358374476 -1.5013375282 -0.29790553451 -2.1862101555 -12.414070129 -9.3102944447e-06
          6.5749592781 -18.871370316 0.19528853893 -0.99410611391 -4.2052307129 -0.22368763387
          0.97310560942 -16.630289078 -0.22432439029 -2.9512000084 -10.290523529 -0.097642585635
          8.8754425049 -18.958803177 0.45423918962 -1.2848843336 -5.8243732452 -9.0372777777e-06
          4.598528862 -18.869848251 8.6508480308e-06 -0.71835041046 -2.8256807327 -0.37677317858
          0.97719359398 -16.626148224 7.7896447692e-07 14.585456848 -21.804132462 -0.60357910395
          0 0 0 -2.8355567455 -10.206481934 -1.2839793271e-05
          14.579382896 -21.860090256 -0.30106005073 0 0 0
          -0.79226851463 -14.422224998 0.24262610078 12.123641968 -21.522882462 -0.52752667665
          -2.2900431156 -7.6823077202 -0.32214358449 2.5217974186 -16.641172409 0.42228034139
          -0.24309313297 -1.4339549541 0.21679054201 -2.1972382069 -12.415902138 0.28027513623
          12.119848251 -21.579284668 -0.26278245449 -0.16970910132 -1.3926620483 0.091216877103
          6.5606966019 -18.843606949 0.39259892702 14.580896378 -21.878458023 2.2340276701e-05
          -1.2852743864 -5.7936224937 -0.24428853393 9.6047821045 -21.287763596 -0.44938600063
          -0.39297029376 -2.6744925976 0.32074326277 4.595228672 -18.867040634 0.18597303331
          0 0 0 2.9769399166 -18.928649902 -0.40340107679
          -1.5744451284 -7.5767645836 0.48224303126 -1.0170326233 -4.1729931831 -0.42499309778
          -0.32444399595 -2.6381804943 0.1659643501 9.6102867126 -21.341293335 -0.22264935076
          12.120153427 -21.597305298 1.9497711037e-05 0.973110497 -16.630283356 0.22432594001
          -1.5820147991 -7.6945366859 0.25368732214 2.9936630726 -18.911849976 -0.19995181262
          -2.9511983395 -10.290521622 0.097617544234 -0.16322280467 -1.3905651569 -1.2713629758e-06
          -1.8362718821 -14.702124596 -0.55405366421 9.6133470535 -21.357107162 1.6649608369e-05
          -0.80683749914 -14.439511299 0.49359822273 -0.30517971516 -2.6332912445 -2.9486059248e-06
          -1.5836752653 -7.730281353 -1.0980292245e-05 -1.8161680698 -14.672316551 -0.27061232924
          2.9996168613 -18.910505295 5.8572536545e-06 -2.2147614956 -12.450612068 0.5758869648
          14.579387665 -21.860084534 0.30110472441 7.096282959 -21.121452332 -0.37543135881
          -3.0708043575 -12.803218842 -0.61919486523 0 0 0
          -0.48510709405 -3.9221146107 0.41815039515 -0.37276154757 -16.71295929 -0.47675850987
          -0.42990654707 -3.9095962048 0.21913301945 7.1104006767 -21.161052704 -0.1851900816
          12.11985302 -21.579278946 0.26282146573 -3.0599689484 -12.76807785 -0.31011795998
          -0.35803049803 -16.69461441 -0.2390332073 -0.16970965266 -1.3926621675 -0.091219425201
          -1.2906498909 -5.7164254189 -0.46629714966 4.5766248703 -18.866102219 0.3718958199
          -1.8044872284 -14.671491623 -7.613598882e-06 -2.8623249531 -10.122149467 -0.040336072445
          0.96315175295 -16.648418427 0.45414048433 7.1144604683 -21.17118454 1.3852847587e-05
          9.610291481 -21.341287613 0.22268266976 -3.0445046425 -12.756498337 -1.2964756934e-05
          -0.32444500923 -2.6381804943 -0.16597031057 -0.41665402055 -3.9092566967 -4.8535071073e-06
          -1.5820143223 -7.6945357323 -0.2537086904 2.9936680794 -18.911844254 0.19996353984
          -0.35133844614 -16.689115524 -2.3167676773e-06 1.49639678 -18.956157684 -0.44123885036
          -1.7821307182 -9.7318067551 0.49780938029 1.5116732121 -18.934619904 -0.21864710748
          -1.8037986755 -9.898229599 0.23835322261 14.585466385 -21.804121017 0.60362380743
          0 0 0 -1.8161628246 -14.672310829 0.27059718966
          -0.53954988718 -5.3853917122 0.497351408 4.9268584251 -21.102348328 -0.33875447512
          -0.50167924166 -5.397166729 0.26219946146 12.123652458 -21.522871017 0.5275657177
          -0.24309541285 -1.4339559078 -0.21679353714 4.9500479698 -21.102931976 -0.16984413564
          7.1104059219 -21.161048889 0.18521782756 -3.0599634647 -12.768073082 0.31009218097
          -0.42990753055 -3.9095959663 -0.2191427052 -0.35802546144 -16.694608688 0.23902860284
          1.5178227425 -18.928909302 2.8803399346e-06 -1.8484860659 -9.9301099777 -1.2531332686e-05
          9.6047925949 -21.287752151 0.44941937923 -0.39297357202 -2.6744940281 -0.32074940205
          2.9769496918 -18.928638458 0.40341281891 -0.49493324757 -5.4035277367 -6.9409306889e-06
          -1.5744458437 -7.5767641068 -0.48226282001 4.9537367821 -21.105894089 1.1115289453e-05
          15.609398842 -24.281320572 -0.62632113695 0 0 0
          -1.8362623453 -14.702112198 0.55403858423 1.5116783381 -18.934614182 0.21865291893
          0 0 0 13.015669823 -23.988554001 -0.53803509474
          -2.704513073 -15.048402786 -0.61918532848 -1.8037962914 -9.8982276917 -0.23837770522
          -0.014545097947 -1.266956687 0.11347512156 -1.4523258209 -16.922615051 -0.52812093496
          15.6014328 -24.347143173 -0.31270140409 7.0962934494 -21.121440887 0.37545916438
          13.009882927 -24.05452919 -0.26868373156 0.042565692216 -1.2162227631 0.045560821891
          -3.0707950592 -12.803207397 0.61916941404 -2.6824190617 -15.008919716 -0.3040907383
          -0.48511040211 -3.9221162796 -0.4181599319 3.4006521702 -21.159925461 -0.38328796625
          -0.50167959929 -5.397166729 -0.26221311092 -0.37275192142 -16.712947845 0.47675400972
          -0.56229972839 -7.1837968826 0.55678576231 4.950053215 -21.102926254 0.16986636817
          -1.4308180809 -16.898176193 -0.25879991055 -0.53961718082 -7.2134437561 0.29298830032
          3.4225702286 -21.137887955 -0.188808918 10.363251686 -23.732255936 -0.44931548834
          15.601864815 -24.36889267 2.5450945031e-05 0.08435908705 -2.3565766811 0.23371960223
          0 0 0 10.366887093 -23.798259735 -0.22283060849
          0.16069859266 -2.3030548096 0.10590305179 13.009381294 -24.076272964 2.2365646146e-05
          0.095723763108 -18.976266861 -0.46187210083 -2.6703686714 -15.002990723 -1.1354938579e-05
          -1.4211148024 -16.896186829 -5.7154966271e-06 -1.9683741331 -11.985765457 0.61587131023
          0.048515167087 -1.212702632 -6.6599614001e-07 0.10828829557 -18.955158234 -0.23329785466
          3.4305744171 -21.134885788 8.2308733909e-06 -2.0959918499 -12.243963242 0.15473562479
          -0.54413896799 -7.2291474342 -9.0043922683e-06 1.4964066744 -18.95614624 0.44124475121
          10.369194031 -23.818647385 1.9296969185e-05 -1.7821284533 -9.7318048477 -0.49783220887
          0.1766410619 -2.303661108 -1.5325412051e-06 7.7006015778 -23.510705948 -0.35385191441
          15.601437569 -24.347137451 0.31275230646 0.11423920095 -18.947141647 -2.4245821351e-07
          0.22166918218 -3.4297730923 0.38271233439 -0.53955233097 -5.3853936195 -0.49736443162
          -2.0837314129 -12.244392395 -1.3708647202e-05 4.9268693924 -21.102336884 0.33877676725
          0 0 0 7.7171149254 -23.570331573 -0.17442272604
          0.29183271527 -3.3898112774 0.17317000031 13.009887695 -24.054521561 0.26872846484
          -2.6824133396 -15.008913994 0.30406814814 -1.4308125973 -16.898170471 0.25878858566
          0.042565282434 -1.2162230015 -0.045562196523 3.4225754738 -21.137882233 0.18882539868
          -0.53961658478 -7.2134432793 -0.2930059135 10.366892815 -23.798254013 0.2228692174
          7.7220025063 -23.586273193 1.6304331439e-05 1.9878596067 -21.181913376 -0.4204184413
          -0.59816104174 -9.2004995346 0.63195621967 0.30586659908 -3.3993115425 -2.6784184683e-06
          0.16069754958 -2.3030545712 -0.10590625554 -0.6003100276 -9.2605314255 0.32296818495
          0.10829371959 -18.955152512 0.23329743743 2.0053267479 -21.156396866 -0.20995891094
          -2.0959887505 -12.243960381 -0.15476244688 5.2778568268 -23.372518539 -0.2817940414
          15.609408379 -24.281309128 0.62637203932 0 0 0
          0.38181614876 -4.7796812057 0.49725836515 5.3153119087 -23.37922287 -0.14276368916
          13.015680313 -23.988540649 0.53807985783 0.42692998052 -4.746553421 0.23516592383