<?xml version="1.0"?>
<VTKFile type="UnstructuredGrid" version="0.1" byte_order="LittleEndian" header_type="UInt32" compressor="vtkZLibDataCompressor">
  <UnstructuredGrid>
    <Piece NumberOfPoints="6405" NumberOfCells="4800">
      <PointData>
        <DataArray type="Float32" Name="DISPLACEMENT" NumberOfComponents="3" ComponentName0="X-DISPLACEMENT" ComponentName1="Y-DISPLACEMENT" ComponentName2="Z-DISPLACEMENT" format="ascii" RangeMin="0" RangeMax="288.38051576">
          0 0 0 0 0 0
          2.4375417233 -1.5459486246 -1.1080169678 0 0 0
          1.4859126806 -0.94246792793 -0.81434565783 0 0 0
          2.2395997047 -1.7160896063 -0.4357188046 1.2952712774 -1.0801683664 -0.33217990398
          0 0 0 4.3359866142 -2.9794170856 -1.1067066193
          0 0 0 4.2873849869 -3.1679594517 -0.56961607933
          2.9701802731 -2.5240590572 -0.89888459444 0 0 0
          0 0 0 2.2493195534 -1.7676132917 3.5466098325e-07
          0.97889947891 -0.6602756381 -0.58107948303 1.2911376953 -1.1029629707 1.628789903e-07
          2.9139962196 -2.6727535725 -0.45820119977 0.83339267969 -0.7827103138 -0.24024514854
          4.2412824631 -3.2194349766 1.0106108448e-06 1.9794588089 -2.182258606 -0.68637859821
          0 0 0 2.8770873547 -2.7199013233 6.3152975827e-07
          1.9150115252 -2.3111886978 -0.35115838051 0 0 0
          5.993637085 -4.8066205978 -1.0067549944 0 0 0
          0.82815313339 -0.79932284355 -1.2112978709e-07 0 0 0
          0 0 0 2.2395999432 -1.7160894871 0.43571954966
          4.3314704895 -4.381310463 -0.84541755915 6.0243124962 -4.9353404045 -0.51342231035
          0.41692709923 -0.51145982742 -0.34455278516 1.2952716351 -1.0801680088 0.33218029141
          4.3569717407 -4.501352787 -0.43055409193 0.29375198483 -0.63350045681 -0.15991030633
          1.8853275776 -2.3493480682 1.4862598618e-07 4.2873854637 -3.1679589748 0.56961816549
          0 0 0 0 0 0
          1.0110077858 -1.9905836582 -0.50440198183 3.0168423653 -4.0637578964 -0.68848186731
          6.0105166435 -4.9815568924 1.9407320906e-06 2.9139971733 -2.6727526188 0.45820254087
          3.0139472485 -4.1743235588 -0.34969455004 0.83339327574 -0.78270989656 0.24024502933
          4.3494186401 -4.5407381058 1.3638133396e-06 0.94777333736 -2.105152607 -0.25573176146
          0.28004905581 -0.64872270823 -4.9102283128e-07 0 0 0
          7.476041317 -6.8326330185 -0.86936551332 0 0 0
          5.6061291695 -6.4482107162 -0.76114076376 1.915012598 -2.3111877441 0.35115876794
          7.5302047729 -6.9173283577 -0.44065833092 2.4375426769 -1.545948267 1.1080179214
          0 0 0 0 0 0
          0.92633217573 -2.1403152943 -4.4880241035e-07 3.0040838718 -4.2083206177 7.0900665605e-07
          -0.061121571809 -0.57190191746 -0.17440061271 5.6537423134 -6.5326304436 -0.38377383351
          1.4859137535 -0.94246727228 0.81434631348 1.7710793018 -3.8457932472 -0.53433799744
          0 0 0 6.0243134499 -4.935338974 0.51342630386
          -0.14227280021 -0.68748664856 -0.092650838196 1.7530953884 -3.9496135712 -0.2704821825
          4.3569726944 -4.5013513565 0.43055686355 0.29375296831 -0.63349992037 0.15990948677
          4.0371198654 -6.1382365227 -0.64853107929 0.1140896678 -1.9464126825 -0.31647279859
          7.5326199532 -6.9471974373 3.084428954e-06 4.3359885216 -2.9794156551 1.1067090034
          0 0 0 0 0 0
          4.0558629036 -6.2201304436 -0.32748359442 2.9701824188 -2.5240576267 0.89888614416
          5.6619534492 -6.5614085197 2.322427008e-06 0.070020861924 -2.0622441769 -0.16354933381
          0.97890049219 -0.66027474403 0.58107972145 -0.15259084105 -0.7181892395 -1.0969519053e-06
          1.7442090511 -3.9790821075 -6.4279291223e-08 3.0139489174 -4.1743221283 0.34969604015
          0.94777500629 -2.1051516533 0.25573095679 4.0581865311 -6.2462234497 1.4947584077e-06
          1.9794608355 -2.1822566986 0.68637919426 0.059454716742 -2.0963351727 -1.2421778592e-06
          2.5552482605 -5.910756588 -0.5372851491 7.5302066803 -6.9173269272 0.4406645596
          5.993639946 -4.8066182137 1.0067591667 0 0 0
          8.787894249 -8.9899511337 -0.75501579046 0 0 0
          0 0 0 0.48659461737 -3.7288463116 -0.36622577906
          2.5484957695 -5.9870562553 -0.27204990387 8.8393306732 -9.0417785645 -0.37984773517
          6.7788805962 -8.6460866928 -0.68783891201 5.6537437439 -6.5326290131 0.38377854228
          -0.73745411634 -0.7414585948 -0.016083158553 0 0 0
          4.3314733505 -4.3813080788 0.84542053938 0.41692847013 -0.51145857573 0.34455239773
          0.45283341408 -3.8305344582 -0.19262491167 -0.14227150381 -0.68748581409 0.092648841441
          -0.83950358629 -0.84552448988 -0.033232495189 1.753097415 -3.9496121407 0.27048206329
          6.8245530128 -8.7010278702 -0.3441542387 4.0558648109 -6.2201290131 0.32748663425
          2.5474629402 -6.010723114 5.6269783499e-07 8.8478822708 -9.0608224869 4.4145303946e-06
          -0.80146330595 -2.0857880116 -0.23552267253 0.070022702217 -2.0622429848 0.16354687512
          0 0 0 5.024368763 -8.3663654327 -0.6176353097
          1.0110104084 -1.9905813932 0.50440138578 3.0168452263 -4.0637550354 0.68848353624
          0.44572967291 -3.8588635921 -9.7583006209e-07 6.8367090225 -8.7203006744 3.4866270653e-06
          -0.8550978899 -0.88014048338 -2.1194769033e-06 -0.86667728424 -2.1660919189 -0.10545127094
          5.0468716621 -8.4199523926 -0.30903425813 7.4760446548 -6.8326301575 0.86937195063
          0 0 0 0.99367439747 -5.7518286705 -0.43937903643
          5.6061329842 -6.4482073784 0.76114565134 -0.86991852522 -2.2055952549 -2.4775490601e-06
          0.96346521378 -5.8193941116 -0.22384631634 5.0542478561 -8.4385280609 2.4910118555e-06
          -0.061120018363 -0.57190006971 0.17439904809 2.5484976768 -5.987054348 0.27205106616
          3.3744983673 -8.1586732864 -0.55433660746 8.8393325806 -9.0417766571 0.37985661626
          -0.58066439629 -3.8167948723 -0.3354550004 1.7710827589 -3.8457901478 0.53433799744
          0 0 0 0.45283547044 -3.8305327892 0.19262297451
          3.3754088879 -8.2051057816 -0.27768439054 -0.83950185776 -0.8455234766 0.033228434622
          -0.63093984127 -3.8735463619 -0.15663467348 6.824555397 -8.7010259628 0.34416127205
          4.0371236801 -6.1382331848 0.64853423834 0.11409252137 -1.9464099407 0.3164704442
          9.9488248825 -11.212373734 -0.66921448708 0 0 0
          0.96038931608 -5.8416461945 -4.961553941e-07 7.8499951363 -10.904905319 -0.62979978323
          9.9899520874 -11.243607521 -0.33587771654 0 0 0
          -1.6356092691 -0.95090425014 -0.0027533923276 7.8875517845 -10.939678192 -0.31408691406
          3.3787939548 -8.2229194641 1.3994250594e-06 -1.7769160271 -0.98916655779 -0.010463570245
          -0.86667513847 -2.1660904884 0.10544637591 -0.63064610958 -3.9090883732 -2.2819995138e-06
          5.0468740463 -8.4199504852 0.30903929472 5.9554905891 -10.655561447 -0.58755874634
          -1.6800802946 -2.3241505623 -0.27509778738 9.9992904663 -11.255661011 5.9203680394e-06
          0 0 0 -1.7597820759 -2.3334994316 -0.11507772654
          5.9795370102 -10.689305305 -0.29308801889 7.8987979889 -10.95247364 4.8476977099e-06
          -1.7798540592 -1.0324302912 -3.782644626e-06 2.5552520752 -5.9107527733 0.53728640079
          1.6947184801 -7.9916806221 -0.51774394512 8.7878990173 -8.989947319 0.75502485037
          0 0 0 -0.20420511067 -5.7532157898 -0.4302995801
          0.96346747875 -5.8193922043 0.22384537756 0.48659813404 -3.7288427353 0.36622387171
          6.7788848877 -8.6460828781 0.68784612417 -0.73745232821 -0.74145591259 0.01607946679
          -0.23166106641 -5.7872037888 -0.20749486983 1.6814033985 -8.0262470245 -0.25488641858
          3.375411272 -8.2051029205 0.27768725157 -0.63093745708 -3.873544693 0.15663018823
          5.9873967171 -10.701657295 3.7103616251e-06 -1.7615491152 -2.3629648685 -4.2083938752e-06
          4.193543911 -10.475776672 -0.55185139179 -1.4622341394 -4.0372905731 -0.39872378111
          -0.8014600873 -2.0857846737 0.23551790416 9.9899549484 -11.243605614 0.33588960767
          5.0243735313 -8.366361618 0.6176404953 0 0 0
          1.6824712753 -8.0413007736 2.039808038e-07 -0.2273323983 -5.811504364 -1.847457952e-06
          4.2057256699 -10.503013611 -0.27569049597 7.8875541687 -10.939676285 0.31409665942
          -1.5140529871 -4.0292625427 -0.18333034217 -1.7769138813 -0.9891654253 0.010456167161
          0.99367851019 -5.7518248558 0.43937829137 4.2099323273 -10.51455307 2.4978774036e-06
          5.9795398712 -10.689303398 0.29309549928 -1.7597795725 -2.3334980011 0.1150694564
          -1.509088397 -4.053071022 -4.0194249777e-06 10.994801521 -13.453263283 -0.6117618084
          0 0 0 11.024377823 -13.474884033 -0.30671286583
          3.3745028973 -8.1586694717 0.55433964729 8.8354349136 -13.171262741 -0.58473563194
          -0.58066040277 -3.8167910576 0.33545064926 0.33057829738 -7.9216742516 -0.48243767023
          -0.68588638306 -1.3431899548 0.37738743424 -0.2316583246 -5.7872018814 0.20749127865
          1.6814062595 -8.0262441635 0.25488692522 0 0 0
          8.8639822006 -13.196480751 -0.29121485353 0.32733285427 -7.9479093552 -0.24051763117
          -0.67497491837 -1.4166061878 0.11033754051 2.4907224178 -10.326886177 -0.5336638093
          -1.1397242546 -5.9456877708 -0.48809626698 9.9488306046 -11.212368965 0.66922652721
          0 0 0 7.8500003815 -10.904900551 0.62980973721
          11.032887459 -13.483517647 7.5938855844e-06 -1.1610512733 -5.9347410202 -0.23020859063
          2.4976375103 -10.346846581 -0.26312795281 -1.6356070042 -0.95090061426 0.0027463501319
          6.8261141777 -12.944764137 -0.55322188139 -1.7289098501 -2.6045517921 0.072751007974
          0 0 0 4.2057285309 -10.503011703 0.27569553256
          -1.5140501261 -4.0292606354 0.18332244456 8.8729448318 -13.205776215 6.3900793066e-06
          0.3330757618 -7.9596743584 -1.1460173255e-06 6.8504953384 -12.969396591 -0.27541479468
          -1.818655014 -2.7066845894 -0.023476138711 -0.6797799468 -1.4287953377 -2.4349358227e-06
          5.9554958344 -10.655557632 0.58756637573 -1.6800765991 -2.3241465092 0.27508965135
          2.5008132458 -10.355187416 1.2031683809e-06 -1.1513847113 -5.9517278671 -3.5820683024e-06
          1.6947236061 -7.9916763306 0.51774466038 6.857670784 -12.977874756 5.1256183724e-06
          -1.7171030045 -2.6922211647 -4.6354311962e-06 -0.20420049131 -5.7532114983 0.43029612303
          11.024380684 -13.474881172 0.30672809482 4.964097023 -12.792686462 -0.52414143085
          0 0 0 -2.1911642551 -4.3247303963 -0.45021685958
          4.9841189384 -12.811068535 -0.26161921024 8.8639850616 -13.19647789 0.29122766852
          -0.67497467995 -1.4166051149 -0.11034227908 0.32733592391 -7.9479074478 0.2405153662
          -2.2484109402 -4.2935624123 -0.22590924799 4.1935491562 -10.475771904 0.5518565774
          0.92958712578 -10.22756958 -0.49052599072 2.4976406097 -10.346844673 0.2631303668
          -1.4622297287 -4.0372862816 0.3987159729 -1.1610482931 -5.9347391129 0.23020154238
          -0.72811967134 -8.0686740875 -0.52418357134 0.93300521374 -10.246044159 -0.24947154522
          4.9887514114 -12.81772995 3.7950399019e-06 6.8504981995 -12.96939373 0.27542507648
          -1.8186545372 -2.7066831589 0.023466957733 -0.73317801952 -8.0639238358 -0.25046673417
          -2.2300636768 -4.2975554466 -5.9262056311e-06 11.971529007 -15.693623543 -0.58050811291
          0 0 0 -0.50074476004 -1.554497242 0.29783797264
          0.9389731288 -10.251094818 -2.1130692573e-07 3.2296516895 -12.688120842 -0.50754463673
          9.7584619522 -15.424670219 -0.55235332251 10.994807243 -13.453258514 0.61177718639
          0 0 0 0 0 0
          -0.7203399539 -8.0781612396 -2.8569734241e-06 -1.9305891991 -6.2626748085 -0.57183480263
          11.989863396 -15.715052605 -0.29045572877 3.2457408905 -12.69811821 -0.25338160992
          9.7776908875 -15.449350357 -0.27470251918 8.8354406357 -13.171257973 0.58474862576
          -0.47438177466 -1.5730365515 0.13033048809 0.3305836916 -7.9216690063 0.48243549466
          -0.68588763475 -1.3431888819 -0.37739169598 -1.9556384087 -6.2177653313 -0.27648764849
          4.9841217995 -12.811066628 0.26162683964 -2.2484080791 -4.2935600281 0.22589752078
          7.6365599632 -15.214112282 -0.51808744669 2.4907283783 -10.326881409 0.53366631269
          -1.1397192478 -5.9456825256 0.48808932304 0 0 0
          -0.91290169954 -2.9269628525 0.23061652482 11.996878624 -15.723107338 9.4214601631e-06
          -0.47839325666 -1.5943498611 -1.8346506749e-06 3.2503967285 -12.702642441 2.3865889034e-06
          7.6582250595 -15.237731934 -0.25707271695 6.8261198997 -12.944759369 0.5532323122
          9.784075737 -15.457727432 8.0942572822e-06 -1.7289100885 -2.6045496464 -0.072758488357
          -1.9444744587 -6.2209281921 -5.5886303016e-06 -0.95153963566 -3.0048024654 0.11739503592
          0.93300831318 -10.246041298 0.24947112799 -0.73317486048 -8.0639209747 0.25046107173
          -0.2480558306 -10.336777687 -0.54266387224 7.6639971733 -15.244590759 6.7095829763e-06
          -0.96005743742 -3.0295236111 -3.4897791465e-06 -0.24411246181 -10.326263428 -0.26209071279
          5.6561613083 -15.096240997 -0.48610854149 0 0 0
          -1.3135621548 -4.3595848083 0.11724377424 11.989866257 -15.715049744 0.29047459364
          -0.47438153625 -1.5730361938 -0.13033388555 3.2457442284 -12.698115349 0.25338640809
          5.6782455444 -15.110831261 -0.24177274108 4.9641032219 -12.79268074 0.52414917946
          9.7776937485 -15.449347496 0.27471873164 1.5507131815 -12.609950066 -0.50501906872
          -1.5492326021 -8.3907089233 -0.62308555841 -2.1911599636 -4.3247256279 0.45020547509
          -1.3804857731 -4.499063015 0.026821551844 -1.95563519 -6.2177629471 0.27647656202
          1.5568791628 -12.60951519 -0.25244545937 -1.5566939116 -8.3444271088 -0.2982262969
          -0.2297641933 -10.337879181 -1.9590786451e-06 0.92959290743 -10.227564812 0.49052557349
          7.6582279205 -15.237729073 0.2570861876 -0.72811412811 -8.0686683655 0.5241779685
          5.6825675964 -15.115130424 5.2593113651e-06 -0.95153903961 -3.0048015118 -0.1174018085
          -1.3941353559 -4.5096316338 -4.6383156587e-06 1.5623902082 -12.611562729 8.5044808884e-07
          -1.5413264036 -8.3499307632 -4.8965489441e-06 -1.6645778418 -6.1437821388 0.04485334456
          3.8630650043 -15.056915283 -0.47722664475 11.971535683 -15.693618774 0.58052712679
          0 0 0 -0.24410912395 -10.326260567 0.26208683848
          -0.50074571371 -1.5544974804 -0.29784107208 -1.7644453049 -6.3133673668 -0.065696410835
          3.2296578884 -12.68811512 0.50754952431 9.7584676743 -15.424664497 0.55236965418
          3.8827431202 -15.057107925 -0.23852200806 12.92233181 -17.944875717 -0.57099103928
          0 0 0 -1.9305840731 -6.2626690865 0.57182377577
          12.930436134 -17.972272873 -0.28501176834 -0.34253624082 -1.574865222 0.2565523982
          10.645934105 -17.67675209 -0.53313153982 5.6782488823 -15.1108284 0.241783306
          0 0 0 -1.3804850578 -4.4990615845 -0.026830747724
          10.655857086 -17.706796646 -0.26492697001 -0.29335969687 -1.5739884377 0.11030074209
          1.5568826199 -12.609512329 0.2524472177 -1.5566905737 -8.3444242477 0.29821661115
          7.6365666389 -15.21410656 0.51810103655 -1.7516496181 -6.3052453995 -5.2793893701e-06
          3.8875238895 -15.060362816 3.745467211e-06 -0.91290211678 -2.9269626141 -0.23062263429
          0.27680754662 -12.680953026 -0.55363541842 -0.63363069296 -3.0067300797 0.28068107367
          8.397605896 -17.466033936 -0.48763486743 -1.1158336401 -10.641197205 -0.64843970537
          12.935413361 -17.98167038 1.1381612239e-05 0 0 0
          0.29272481799 -12.66262722 -0.27101415396 10.659749031 -17.7161026 9.9364115158e-06
          -0.29834979773 -1.585693121 -1.077879233e-06 8.4133148193 -17.494058609 -0.24170474708
          -0.63189977407 -3.0406405926 0.14952692389 -1.1047083139 -10.592487335 -0.31259837747
          -0.24804979563 -10.336771965 0.54266005754 0.30567285419 -12.66617012 -8.7969493734e-07
          -2.1022086143 -8.6295881271 -0.4570735693 -1.764444232 -6.3133659363 0.065685980022
          2.1987504959 -15.038113594 -0.51007652283 8.41751194 -17.500984192 8.4503790276e-06
          5.656167984 -15.096235275 0.48611927032 3.8827466965 -15.057105064 0.23852954805
          -1.0862967968 -10.597101212 -3.9926785576e-06 -0.62543898821 -3.0600788593 -2.1371974981e-06
          -1.3135620356 -4.3595838547 -0.11725175381 12.930438995 -17.972269058 0.28503453732
          6.257894516 -17.364780426 -0.44556552172 -2.1527812481 -8.6708927155 -0.27672001719
          -0.9298094511 -4.4947900772 0.25630837679 2.2147753239 -15.024456978 -0.24975545704
          1.5507194996 -12.609944344 0.50502097607 -1.5492268801 -8.3907032013 0.62307590246
          0 0 0 -0.95576786995 -4.5786952972 0.13711133599
          10.655859947 -17.706792831 0.26494687796 -0.29335963726 -1.5739884377 -0.1103027761
          6.2771191597 -17.380161285 -0.22196984291 -2.0893759727 -8.6277885437 -6.2102371885e-06
          2.221009016 -15.025040627 2.1589016796e-06 0.29272833467 -12.662624359 0.27101245522
          6.2803397179 -17.38369751 6.9238894866e-06 -0.95980662107 -4.6097273827 -3.0435558074e-06
          8.413318634 -17.494054794 0.2417216897 -0.63189971447 -3.0406403542 -0.14953108132
          -1.1047047377 -10.592484474 0.31259047985 -1.6645767689 -6.1437811852 -0.044862508774
          3.8630716801 -15.056909561 0.47723436356 4.3869700432 -17.381481171 -0.43997609615
          12.922338486 -17.944869995 0.57101386786 0 0 0
          -1.2323067188 -6.2701272964 0.20441743731 -0.34253698587 -1.5748659372 -0.25655433536
          10.645941734 -17.676746368 0.53315156698 -2.1527788639 -8.6708908081 0.27670779824
          2.2147791386 -15.024454117 0.24975982308 4.408270359 -17.376550674 -0.22041131556
          -0.66071182489 -12.961330414 -0.64538115263 -1.2601978779 -6.3935046196 0.10525356233
          -0.95576769114 -4.5786952972 -0.13711720705 6.2771229744 -17.380159378 0.22198373079
          -0.63191688061 -12.919686317 -0.31170347333 0.83169060946 -15.082767487 -0.54054987431
          -1.883623004 -11.028769493 -0.72326850891 13.877653122 -20.23723793 -0.57704907656
          0 0 0 11.524004936 -19.963474274 -0.52744972706
          0.27681404352 -12.68094635 0.55363380909 -0.63363146782 -3.0067310333 -0.28068482876
          8.3976125717 -17.466028214 0.48765188456 -1.8620901108 -10.974075317 -0.36618316174
          0.85378533602 -15.062128067 -0.26829236746 -1.115827322 -10.641190529 0.64843183756
          13.8775177 -20.272844315 -0.28765282035 0 0 0
          -1.2716281414 -6.4302463531 -3.7562626858e-06 4.412355423 -17.378528595 5.3332887546e-06
          -0.25350400805 -1.5318971872 0.20970544219 11.52559948 -20.00088501 -0.26227623224
          -0.19716407359 -1.5196869373 0.090276010334 -0.61498945951 -12.920876503 -2.860313316e-06
          9.1416931152 -19.736257553 -0.47098460793 -1.8465139866 -10.963680267 -6.0430984377e-06
          0.86449730396 -15.059202194 4.444595163e-07 13.880256653 -20.284532547 1.3441121155e-05
          0 0 0 -0.43577712774 -2.9632966518 0.26986595988
          9.1502218246 -19.771554947 -0.23352071643 11.527295113 -20.012304306 1.1880269085e-05
          -2.1022052765 -8.6295843124 0.4570633471 2.19875741 -15.038107872 0.51008099318
          -0.19547875226 -1.5245233774 -3.2795830407e-07 -0.40153700113 -2.9676046371 0.14246481657
          6.2579016685 -17.364774704 0.44557949901 -0.92980986834 -4.4947910309 -0.2563136816
          -1.3866753578 -8.3319377899 0.20952728391 2.8005247116 -17.426475525 -0.48138710856
          -1.2601972818 -6.3935041428 -0.10526082665 4.4082741737 -17.37654686 0.22042201459
          -1.4264018536 -8.5148181915 0.062413532287 2.8231320381 -17.407424927 -0.2371647507
          -0.63191330433 -12.919683456 0.31169784069 9.1538181305 -19.780490875 1.0301348993e-05
          -0.39069133997 -2.9761903286 -7.0629522497e-07 6.8027648926 -19.601484299 -0.416988343
          -1.8620865345 -10.974072456 0.36617109179 0.85378909111 -15.062125206 0.26829329133
          13.877521515 -20.2728405 0.28767973185 0 0 0
          -0.59665107727 -4.453294754 0.30115380883 6.8166837692 -19.623048782 -0.20771667361
          11.525602341 -20.000883102 0.2623000145 -0.57874149084 -4.4877319336 0.1600381285
          -1.4572409391 -8.533036232 -4.3081945478e-06 2.8304040432 -17.406574249 3.6755163819e-06
          -0.19716413319 -1.5196871758 -0.090276643634 9.1502256393 -19.771551132 0.23354133964
          6.8198533058 -19.627231598 8.7141143013e-06 -0.57427465916 -4.5054602623 -1.0908078139e-06
          4.3869771957 -17.381475449 0.43998688459 -0.19619567692 -15.306570053 -0.60492408276
          -0.40153712034 -2.9676046371 -0.14246620238 -1.2323064804 -6.2701277733 -0.20442399383
          -1.4696831703 -13.339607239 -0.70820277929 -0.16167469323 -15.276983261 -0.29486623406
          -0.66070520878 -12.961323738 0.64537554979 -1.4286938906 -13.297192574 -0.35197588801
          -1.4264008999 -8.5148162842 -0.062421962619 2.8231358528 -17.407421112 0.23717212677
          0.8316976428 -15.082761765 0.54055082798 -1.8836168051 -11.028762817 0.72325640917
          -0.71878921986 -6.1453762054 0.33467778563 4.8018426895 -19.62018013 -0.40191891789
          13.877659798 -20.237232208 0.57707601786 0 0 0
          11.524011612 -19.963466644 0.52747350931 -0.71111518145 -6.216366291 0.17491564155
          -0.14849430323 -15.275569916 -1.487078066e-06 -1.5547133684 -10.53418541 0.21638546884
          1.392850399 -17.464021683 -0.51889061928 4.8229646683 -19.61441803 -0.20234028995
          -0.25350442529 -1.5318981409 -0.20970611274 -1.4146974087 -13.288267136 -4.898449788e-06
          6.8166871071 -19.623046875 0.20773410797 -0.57874161005 -4.4877324104 -0.16004027426
          1.4151334763 -17.439552307 -0.25731116533 -1.6703002453 -10.775517464 -0.024427941069
          9.141699791 -19.736251831 0.47100529075 -0.71317583323 -6.2448472977 -1.4705184412e-06
          4.8270606995 -19.615804672 7.0625337685e-06 -0.43577766418 -2.9632983208 -0.26986730099
          1.4235261679 -17.433713913 1.8813211682e-06 14.853375435 -22.601577759 -0.59184676409
          0 0 0 -1.6448991299 -10.769681931 -4.7913445087e-06
          14.847915649 -22.644786835 -0.29514217377 0 0 0
          -0.16167098284 -15.276979446 0.29486328363 12.408783913 -22.320419312 -0.5328078866
          -1.3866741657 -8.3319377899 -0.2095349133 2.8005318642 -17.426467896 0.48139449954
          -0.1537835896 -1.4380890131 0.16331383586 -1.4286903143 -13.297189713 0.35196611285
          12.404719353 -22.364545822 -0.2654581368 -0.097487427294 -1.4178854227 0.06857957691
          6.8027720451 -19.601476669 0.41700577736 14.84867382 -22.658952713 1.5560095562e-05
          -0.71111512184 -6.216366291 -0.17491853237 9.9123487473 -22.07346344 -0.47064095736
          -0.21379619837 -2.7928950787 0.24275919795 4.822968483 -19.614414215 0.20235441625
          0 0 0 3.2995471954 -19.704164505 -0.44929876924
          -0.81424611807 -8.0931806564 0.36950495839 -0.59665155411 -4.4532966614 -0.30115583539
          -0.16085992754 -2.7802789211 0.12496501952 9.9147806168 -22.116729736 -0.23321641982
          12.404742241 -22.378608704 1.3880492588e-05 1.4151374102 -17.439548492 0.25731498003
          -0.82124119997 -8.2042284012 0.19202938676 3.3226954937 -19.681745529 -0.22230409086
          -1.670298934 -10.775515556 0.024418445304 -0.092723466456 -1.4183555841 4.1562012143e-07
          -1.0392403603 -15.643388748 -0.65343493223 9.9173755646 -22.129163742 1.219891783e-05
          -0.19618871808 -15.306563377 0.60492110252 -0.14480501413 -2.7807824612 7.413677281e-07
          -0.82219201326 -8.2495756149 -1.8466092797e-06 -0.9987603426 -15.613744736 -0.3214263618
          3.3306646347 -19.679821014 5.3188009588e-06 -1.4696764946 -13.339600563 0.70819300413
          14.847919464 -22.64478302 0.29517328739 7.4027299881 -21.878770828 -0.40686315298
          -2.076631546 -13.615365982 -0.54957520962 0 0 0
          -0.22104291618 -4.2020440102 0.3121278882 0.27143159509 -17.600818634 -0.55009764433
          -0.1771556586 -4.2096295357 0.16333812475 7.4133291245 -21.912488937 -0.20076419413
          12.404723167 -22.364542007 0.26548591256 -2.0865914822 -13.654172897 -0.31181228161
          0.30092290044 -17.580099106 -0.27377024293 -0.097487576306 -1.4178855419 -0.068578831851
          -0.71878951788 -6.1453781128 -0.33468046784 4.8018503189 -19.620174408 0.401933074
          -0.98557150364 -15.607988358 -3.5253792703e-06 -1.5547119379 -10.534183502 -0.21639353037
          1.39285779 -17.464015961 0.51889455318 7.4180502892 -21.920045853 1.0531342014e-05
          9.9147834778 -22.116727829 0.23324081302 -2.0366001129 -13.606226921 -6.2653653004e-06
          -0.16086022556 -2.7802789211 -0.12496363372 -0.16583697498 -4.2155971527 9.4449143262e-07
          -0.82124108076 -8.2042274475 -0.19203299284 3.3226995468 -19.681741714 0.22231474519
          0.31035837531 -17.574323654 9.9074499715e-09 1.9525812864 -19.756196976 -0.49189594388
          -0.91336923838 -10.370754242 0.34693050385 1.9752360582 -19.732831955 -0.24349100888
          -0.91073668003 -10.515906334 0.1856533438 14.853383064 -22.601570129 0.59187793732
          0 0 0 -0.99875670671 -15.613740921 0.32141932845
          -0.17749477923 -5.7984681129 0.37415891886 5.1786937714 -21.827320099 -0.36921471357
          -0.14350128174 -5.8305110931 0.19699588418 12.408791542 -22.320411682 0.53283566236
          -0.1537835747 -1.4380899668 -0.16331326962 5.2003059387 -21.824707031 -0.18546541035
          7.4133324623 -21.912485123 0.20078524947 -2.0865886211 -13.654170036 0.31179991364
          -0.17715601623 -4.2096290588 -0.16333635151 0.30092674494 -17.580095291 0.27377027273
          1.984364748 -19.727022171 3.505395398e-06 -0.92932033539 -10.568955421 -2.2121359962e-06
          9.912355423 -22.073455811 0.47066536546 -0.21379640698 -2.7928962708 -0.24275808036
          3.2995545864 -19.704158783 0.44930940866 -0.13639710844 -5.8437423706 9.6161602414e-07
          -0.81424623728 -8.0931816101 -0.36950826645 5.2038059235 -21.826034546 8.861524293e-06
          15.854729652 -25.059024811 -0.60947352648 0 0 0
          -1.0392334461 -15.643381119 0.65342789888 1.9752403498 -19.73282814 0.24349801242
          0 0 0 13.310488701 -24.76937294 -0.54349035025
          -1.7567795515 -16.038576126 -0.69526457787 -0.91073620319 -10.51590538 -0.18565770984
          -0.014893062413 -1.2618403435 0.10746826231 -0.61699920893 -17.877799988 -0.59442079067
          15.847002029 -25.108310699 -0.30438506603 7.4027376175 -21.878763199 0.40688419342
          13.303896904 -24.819150925 -0.27144142985 0.035930547863 -1.2376674414 0.044953674078
          -2.0766267776 -13.615362167 0.54956489801 -1.7189811468 -16.009456635 -0.34362888336
          -0.22104334831 -4.2020459175 -0.31212648749 3.7516391277 -21.905384064 -0.42157390714
          -0.14350162446 -5.8305106163 -0.19699411094 0.27143883705 -17.600811005 0.55009758472
          -0.083374798298 -7.7016878128 0.42220047116 5.2003097534 -21.824703217 0.18548311293
          -0.58483189344 -17.8561306 -0.29062774777 -0.058205086738 -7.7498221397 0.22347600758
          3.7754306793 -21.880311966 -0.2086237967 10.714675903 -24.505723953 -0.47660061717
          15.846450806 -25.124673843 1.7700431272e-05 0.10758572817 -2.4788169861 0.20627997816
          0 0 0 10.713587761 -24.556667328 -0.23671768606
          0.16843037307 -2.4557013512 0.099086709321 13.302821159 -24.835678101 1.5896299374e-05
          0.74771553278 -19.824485779 -0.50769782066 -1.7048368454 -16.001180649 -5.664062428e-06
          -0.57437580824 -17.852994919 -2.0022430363e-06 -0.88718408346 -12.817112923 0.50778537989
          0.04111392051 -1.2373641729 1.1349826536e-06 0.76670044661 -19.806779861 -0.2566229701
          3.7849590778 -21.877630234 7.0420933298e-06 -0.9189825058 -13.039348602 0.1590538919
          -0.057436965406 -7.7721276283 8.7558879613e-07 1.9525892735 -19.756189346 0.49190294743
          10.714743614 -24.572404861 1.4101469787e-05 -0.91336864233 -10.370755196 -0.34693461657
          0.18110953271 -2.4530084133 2.0819081783e-06 8.0915985107 -24.262205124 -0.40039458871
          15.84700489 -25.108306885 0.30442044139 0.77447122335 -19.800205231 1.6492804207e-06
          0.26474842429 -3.7763855457 0.30829203129 -0.17749534547 -5.7984700203 -0.37415748835
          -0.93788003922 -13.069807053 -2.2371111754e-06 5.1787014008 -21.827312469 0.36923241615
          0 0 0 8.1000127792 -24.311292648 -0.19768422842
          0.3255802393 -3.7674670219 0.15042832494 13.303900719 -24.81914711 0.27147322893
          -1.7189774513 -16.00945282 0.34361758828 -0.58482819796 -17.856126785 0.29062372446
          0.035930298269 -1.2376672029 -0.044951628894 3.7754347324 -21.880308151 0.2086378932
          -0.058205462992 -7.7498216629 -0.22347436845 10.713590622 -24.556663513 0.23674587905
          8.1045999527 -24.323568344 1.2329795936e-05 2.4816102982 -21.946308136 -0.46577340364
          0.053649224341 -9.8070173264 0.47912803292 0.34323000908 -3.7743165493 2.8527042559e-06
          0.16842985153 -2.4557008743 -0.099082738161 0.068082243204 -9.8825073242 0.24444548786
          0.76670438051 -19.806776047 0.25662621856 2.49969697 -21.920654297 -0.23190754652
          -0.91898220778 -13.039345741 -0.15905846655 5.5956077576 -24.071502686 -0.32102197409
          15.854736328 -25.059017181 0.60950887203 0 0 0
          0.43306836486 -5.2404408455 0.4140855968 5.622112751 -24.08215332 -0.16439628601
          13.31049633 -24.769365311 0.54352211952 0.47511532903 -5.2473454475 0.20646642148