<?xml version="1.0"?>
<VTKFile type="UnstructuredGrid" version="0.1" byte_order="LittleEndian" header_type="UInt32" compressor="vtkZLibDataCompressor">
  <UnstructuredGrid>
    <Piece NumberOfPoints="6405" NumberOfCells="4800">
      <PointData>
        <DataArray type="Float32" Name="DISPLACEMENT" NumberOfComponents="3" ComponentName0="X-DISPLACEMENT" ComponentName1="Y-DISPLACEMENT" ComponentName2="Z-DISPLACEMENT" format="ascii" RangeMin="0" RangeMax="280.00882187">
          0 0 0 0 0 0
          2.395506382 -1.5291517973 -1.0900911093 0 0 0
          1.4648823738 -0.93936622143 -0.80604946613 0 0 0
          2.2007045746 -1.6946562529 -0.42904984951 1.2771580219 -1.0730276108 -0.32879081368
          0 0 0 4.2573838234 -2.9275164604 -1.0883588791
          0 0 0 4.2099070549 -3.1117167473 -0.56068229675
          2.9268832207 -2.4791858196 -0.88664621115 0 0 0
          0 0 0 2.2102069855 -1.7454172373 4.5353897349e-07
          0.98550254107 -0.66787296534 -0.58323848248 1.2731803656 -1.095797658 2.0908903764e-07
          2.87245965 -2.6247439384 -0.45202356577 0.84307587147 -0.78656733036 -0.24034935236
          4.1646790504 -3.1622719765 1.1957939705e-06 1.9768915176 -2.1427762508 -0.67720490694
          0 0 0 2.8359754086 -2.6710710526 7.2424484188e-07
          1.9155445099 -2.2703616619 -0.34659820795 0 0 0
          5.8875031471 -4.7043652534 -0.99103826284 0 0 0
          0.83814513683 -0.80362415314 -1.2709521968e-07 0 0 0
          0 0 0 2.2007045746 -1.6946558952 0.42905077338
          4.2701396942 -4.2839298248 -0.83183199167 5.9177012444 -4.8310418129 -0.50548690557
          0.46090137959 -0.51969343424 -0.35815376043 1.2771584988 -1.0730271339 0.32879129052
          4.295501709 -4.4024925232 -0.42373847961 0.34381890297 -0.63753175735 -0.16299314797
          1.8855147362 -2.3076210022 1.5027195843e-07 4.2099080086 -3.1117157936 0.56068474054
          0 0 0 0 0 0
          1.0650110245 -1.9572210312 -0.49117204547 2.9935534 -3.9675719738 -0.67476803064
          5.9044332504 -4.8765597343 2.2111585167e-06 2.8724606037 -2.6247429848 0.45202508569
          2.9904301167 -4.0771746635 -0.34329783916 0.84307646751 -0.78656679392 0.24034920335
          4.2881808281 -4.4412550926 1.5038834817e-06 1.0058609247 -2.0734820366 -0.24974501133
          0.33142054081 -0.65267592669 -5.6468445564e-07 0 0 0
          7.3486075401 -6.6785459518 -0.8574488759 0 0 0
          5.5250730515 -6.3007445335 -0.74983555079 1.915545702 -2.2703607082 0.34659859538
          7.4016160965 -6.7628240585 -0.43458518386 2.3955070972 -1.5291512012 1.0900923014
          0 0 0 0 0 0
          0.9847548604 -2.1081149578 -5.5737297089e-07 2.9806673527 -4.1103925705 7.0933543839e-07
          -0.031793307513 -0.55896991491 -0.17187741399 5.5716881752 -6.3846855164 -0.37806075811
          1.4648833275 -0.93936532736 0.80605018139 1.7882142067 -3.7519466877 -0.52045220137
          0 0 0 5.9177026749 -4.8310403824 0.50549137592
          -0.10859139264 -0.67773908377 -0.09158385545 1.7669309378 -3.8538601398 -0.26485168934
          4.2955026627 -4.4024910927 0.42374154925 0.34381988645 -0.6375310421 0.16299217939
          3.9956560135 -5.9999394417 -0.6394726038 0.1445388943 -1.9023845196 -0.29597726464
          7.4042553902 -6.7925672531 3.4459180824e-06 4.2573852539 -2.9275147915 1.0883615017
          0 0 0 0 0 0
          4.0142049789 -6.0809206963 -0.32270845771 2.926885128 -2.4791839123 0.88664793968
          5.579908371 -6.4134573936 2.5190270208e-06 0.094059363008 -2.020111084 -0.1558341682
          0.98550355434 -0.66787177324 0.58323866129 -0.12113175541 -0.70583313704 -1.2399885918e-06
          1.7575609684 -3.8827054501 -2.2119029097e-07 2.9904315472 -4.0771727562 0.34329929948
          1.0058624744 -2.0734808445 0.24974393845 4.017013073 -6.1072850227 1.511143978e-06
          1.9768935442 -2.1427738667 0.67720550299 0.081933774054 -2.0540485382 -1.4722820652e-06
          2.5586364269 -5.7844414711 -0.53393244743 7.401617527 -6.762822628 0.4345921576
          5.8875055313 -4.7043623924 0.99104297161 0 0 0
          8.6430740356 -8.7835979462 -0.74654537439 0 0 0
          0 0 0 0.50683480501 -3.6301791668 -0.36797136068
          2.5525898933 -5.8581976891 -0.26983699203 8.69343853 -8.8365478516 -0.37561801076
          6.678425312 -8.4450321198 -0.67813867331 5.5716896057 -6.384683609 0.37806585431
          -0.69794917107 -0.71997529268 -0.0099330814555 0 0 0
          4.2701425552 -4.2839269638 0.83183526993 0.46090275049 -0.51969194412 0.35815319419
          0.46734210849 -3.7251365185 -0.19242016971 -0.10859010369 -0.6777381897 0.09158154577
          -0.79889583588 -0.82786589861 -0.026357375085 1.7669327259 -3.8538584709 0.26485130191
          6.7234754562 -8.5009860992 -0.33934530616 4.0142068863 -6.0809187889 0.32271152735
          2.5520467758 -5.8825445175 3.8724621731e-07 8.7020778656 -8.8559951782 4.8785136642e-06
          -0.75445407629 -2.0326600075 -0.22377671301 0.094061121345 -2.0201096535 0.15583124757
          0 0 0 4.9612989426 -8.1726942062 -0.60756421089
          1.0650135279 -1.9572182894 0.4911711216 2.9935562611 -3.9675686359 0.67476963997
          0.45915168524 -3.7526583672 -1.3107855921e-06 6.7355136871 -8.5207328796 3.7578788579e-06
          -0.81570589542 -0.86276358366 -2.399144023e-06 -0.82289171219 -2.1112146378 -0.10142837465
          4.9852194786 -8.2273693085 -0.30399152637 7.3486113548 -6.678542614 0.85745602846
          0 0 0 1.0459475517 -5.6315264702 -0.4496113658
          5.5250768661 -6.300740242 0.7498408556 -0.82571518421 -2.152048111 -2.9029304187e-06
          1.0205999613 -5.6938996315 -0.22581970692 4.992723465 -8.2465763092 2.5706456199e-06
          -0.031791836023 -0.55896782875 0.17187549174 2.5525920391 -5.8581953049 0.26983782649
          3.3604466915 -7.9755091667 -0.54368966818 8.6934404373 -8.8365459442 0.37562781572
          -0.54419851303 -3.6959524155 -0.33497861028 1.7882173061 -3.751942873 0.52045196295
          0 0 0 0.46734413505 -3.7251343727 0.19241760671
          3.3658883572 -8.0238637924 -0.27208396792 -0.79889404774 -0.82786482573 0.026352752
          -0.58721375465 -3.7507295609 -0.15856721997 6.7234778404 -8.5009832382 0.33935287595
          3.9956598282 -5.9999351501 0.63947588205 0.1445415765 -1.9023813009 0.29597443342
          9.7924909592 -10.955617905 -0.66368800402 0 0 0
          1.0179411173 -5.7160930634 -8.5843350917e-07 7.73412323 -10.650484085 -0.62052720785
          9.8327951431 -10.989517212 -0.33306506276 0 0 0
          -1.5896818638 -0.91944497824 0.019586432725 7.7712655067 -10.688040733 -0.30955538154
          3.3691105843 -8.0424461365 1.289666784e-06 -1.7280100584 -0.96503615379 -0.0028856240679
          -0.82288944721 -2.1112129688 0.1014226526 -0.58717656136 -3.7835114002 -2.7999838039e-06
          4.9852218628 -8.2273664474 0.30399674177 5.8739442825 -10.40172863 -0.57398122549
          -1.6618329287 -2.2382144928 -0.24658729136 9.8421649933 -11.002415657 6.4877035584e-06
          0 0 0 -1.7338972092 -2.2542841434 -0.10911325365
          5.8991107941 -10.439266205 -0.28633272648 7.7823905945 -10.701760292 5.195088761e-06
          -1.7362725735 -1.0058385134 -4.248463938e-06 2.55864048 -5.7844371796 0.53393352032
          1.7548239231 -7.8186264038 -0.50091856718 8.643078804 -8.7835931778 0.74655538797
          0 0 0 -0.16546094418 -5.6104855537 -0.41056144238
          1.0206025839 -5.6938972473 0.22581808269 0.50683832169 -3.6301751137 0.3679689467
          6.6784300804 -8.4450273514 0.67814642191 -0.69794744253 -0.71997237206 0.0099288346246
          -0.18092048168 -5.6529483795 -0.20123752952 1.7506394386 -7.8584465981 -0.24605083466
          3.3658909798 -8.0238618851 0.27208662033 -0.58721119165 -3.7507274151 0.15856173635
          5.9070296288 -10.452633858 3.8509174374e-06 -1.7347365618 -2.2839596272 -4.8260785661e-06
          4.1518449783 -10.222923279 -0.52945059538 -1.4833387136 -3.885414362 -0.36330091953
          -0.75445085764 -2.0326561928 0.22377112508 9.8327970505 -10.989514351 0.33307811618
          4.9613037109 -8.1726894379 0.60756957531 0 0 0
          1.7517814636 -7.8739967346 -9.5121137633e-08 -0.17775203288 -5.6745991707 -2.353865284e-06
          4.1663684845 -10.256185532 -0.26459261775 7.7712678909 -10.688037872 0.30956584215
          -1.5203511715 -3.8929519653 -0.1703825444 -1.7280077934 -0.9650349021 0.0028772819787
          1.0459520817 -5.6315217018 0.44960999489 4.1703724861 -10.268407822 2.4387986741e-06
          5.8991136551 -10.439263344 0.28634044528 -1.7338944674 -2.2542824745 0.10910373181
          -1.5162372589 -3.9152982235 -4.6954223762e-06 10.832306862 -13.154370308 -0.60813874006
          0 0 0 10.861215591 -13.179512978 -0.30482828617
          3.3604514599 -7.9755043983 0.5436924696 8.7076768875 -12.873534203 -0.57615858316
          -0.54419440031 -3.6959476471 0.33497330546 0.33418413997 -7.7346997261 -0.43365842104
          -0.89791411161 -1.2936586142 0.49331712723 -0.18091750145 -5.6529459953 0.20123289526
          1.7506425381 -7.8584442139 0.24605068564 0 0 0
          8.7356157303 -12.902428627 -0.28699612617 0.33330500126 -7.7741904259 -0.21932707727
          -0.89620995522 -1.3832609653 0.13114768267 2.4979014397 -10.083969116 -0.49239188433
          -1.1988283396 -5.7648715973 -0.42403829098 9.7924957275 -10.955613136 0.66370117664
          0 0 0 7.734128952 -10.650479317 0.62053781748
          10.869625092 -13.189269066 8.2510823631e-06 -1.2144604921 -5.7767996788 -0.20113672316
          2.5064480305 -10.112891197 -0.24489685893 -1.5896795988 -0.91944086552 -0.019594464451
          6.7303247452 -12.646051407 -0.53893697262 -2.2022957802 -2.4851560593 -0.073108449578
          0 0 0 4.1663713455 -10.256182671 0.26459753513
          -1.5203483105 -3.8929498196 0.17037327588 8.7444543839 -12.91291523 6.8010099312e-06
          0.33687287569 -7.7860379219 -1.613543759e-06 6.7542114258 -12.675230026 -0.26834765077
          -2.2780132294 -2.5590755939 -0.069746084511 -0.87933760881 -1.3894392252 -3.0197279557e-06
          5.8739500046 -10.401722908 0.5739890933 -1.6618292332 -2.2382097244 0.24657785892
          2.5098545551 -10.122616768 9.3663106782e-07 -1.2068027258 -5.7951855659 -4.2062010834e-06
          1.7548294067 -7.8186211586 0.50091856718 6.7614350319 -12.685028076 5.3070098147e-06
          -2.1840269566 -2.5709388256 -6.0854126787e-06 -0.16545598209 -5.6104803085 0.41055694222
          10.861218452 -13.179510117 0.30484485626 4.892329216 -12.490942001 -0.50135737658
          0 0 0 -2.3594043255 -4.1371498108 -0.40409833193
          4.9108653069 -12.515028954 -0.25028628111 8.7356185913 -12.902424812 0.28700977564
          -0.8962097764 -1.3832597733 -0.13115362823 0.3333081305 -7.7741880417 0.21932384372
          -2.4038164616 -4.1173467636 -0.1970358789 4.1518502235 -10.222917557 0.52945560217
          0.87754666805 -9.9853000641 -0.4415012002 2.5064513683 -10.112888336 0.24489872158
          -1.4833341837 -3.8854091167 0.36329174042 -1.2144575119 -5.7767972946 0.20112836361
          -0.82997179031 -7.8482203484 -0.45203632116 0.87523305416 -10.011660576 -0.22536946833
          4.9157824516 -12.522836685 3.7545464693e-06 6.7542142868 -12.675227165 0.26835832
          -2.2780122757 -2.5590729713 0.069733992219 -0.83930617571 -7.8592886925 -0.21502912045
          -2.3950030804 -4.1255655289 -6.808937087e-06 11.804377556 -15.36348629 -0.57767033577
          0 0 0 -0.61731523275 -1.5407966375 0.3592016995
          0.87966418266 -10.019640923 -6.8686927079e-07 3.1653854847 -12.390161514 -0.47361624241
          9.619383812 -15.096897125 -0.54488271475 10.832312584 -13.154364586 0.60815542936
          0 0 0 0 0 0
          -0.82967406511 -7.8763923645 -3.4890867937e-06 -2.1034104824 -6.0437636375 -0.48702791333
          11.822193146 -15.388462067 -0.28905889392 3.1766467094 -12.405455589 -0.2374804914
          9.6379776001 -15.125126839 -0.27101290226 8.7076826096 -12.873528481 0.57617235184
          -0.58086580038 -1.5609205961 0.15550611913 0.33418962359 -7.7346940041 0.43365517259
          -0.89791595936 -1.2936573029 -0.49332249165 -2.1298315525 -6.0179643631 -0.23010101914
          4.9108681679 -12.515025139 0.25029379129 -2.4038136005 -4.1173443794 0.19702233374
          7.5252456665 -14.889535904 -0.50633555651 2.4979074001 -10.083963394 0.49239373207
          -1.1988233328 -5.7648658752 0.42402994633 0 0 0
          -1.0937033892 -2.7784440517 0.29297882318 11.829035759 -15.397714615 1.0150442904e-05
          -0.58904379606 -1.5904631615 -2.4243834105e-06 3.180962801 -12.411668777 2.1181656393e-06
          7.5459179878 -14.916909218 -0.25125908852 6.7303309441 -12.646045685 0.53894770145
          9.6442060471 -15.134773254 8.5529709395e-06 -2.2022953033 -2.4851515293 0.073097854853
          -2.1206190586 -6.0272231102 -6.3737447817e-06 -1.1330915689 -2.8837618828 0.13964511454
          0.8752361536 -10.011657715 0.22536806762 -0.83930307627 -7.8592858315 0.2150221616
          -0.39228117466 -10.060955048 -0.47776553035 7.5517263412 -14.925285339 6.9104567046e-06
          -1.1356412172 -2.9053356647 -4.5582651182e-06 -0.39553642273 -10.060394287 -0.23165933788
          5.5639624596 -14.773320198 -0.47072398663 0 0 0
          -1.6361180544 -4.1367592812 0.16859441996 11.82219696 -15.388458252 0.28907924891
          -0.58086556196 -1.5609198809 -0.15551066399 3.1766498089 -12.405451775 0.23748472333
          5.5843710899 -14.792054176 -0.23374347389 4.892334938 -12.490935326 0.50136500597
          9.6379804611 -15.125123024 0.2710300386 1.4562168121 -12.3120327 -0.4728179872
          -1.7605098486 -8.1249256134 -0.53767186403 -2.359400034 -4.1371436119 0.40408489108
          -1.7002756596 -4.2851543427 0.0469035469 -2.1298284531 -6.0179615021 0.23008833826
          1.4562767744 -12.315469742 -0.23440811038 -1.7746111155 -8.0912771225 -0.25367996097
          -0.38436162472 -10.073836327 -2.6234929464e-06 0.8775523901 -9.9852933884 0.44149979949
          7.5459213257 -14.916905403 0.2512729466 -0.8299664259 -7.8482141495 0.45202934742
          5.5891976357 -14.798063278 5.2079412853e-06 -1.1330912113 -2.8837604523 -0.13965408504
          -1.7065395117 -4.2990088463 -5.9453354879e-06 1.4597312212 -12.31944561 3.4470477317e-07
          -1.7624474764 -8.1007614136 -5.7018692132e-06 -2.1216201782 -6.0004930496 0.069812163711
          3.7678663731 -14.734054565 -0.45760670304 11.804384232 -15.363480568 0.57769078016
          0 0 0 -0.39553323388 -10.060390472 0.23165410757
          -0.61731660366 -1.5407961607 -0.35920602083 -2.2157511711 -6.1603279114 -0.061972241849
          3.1653914452 -12.390154839 0.47362050414 9.6193904877 -15.09689045 0.54489994049
          3.7839229107 -14.738461494 -0.22789135575 12.749585152 -17.591363907 -0.5685608983
          0 0 0 -2.1034054756 -6.0437574387 0.48701524734
          12.757357597 -17.622285843 -0.28390675783 -0.42389971018 -1.544875741 0.32014787197
          10.493902206 -17.326986313 -0.52632194757 5.5843744278 -14.792051315 0.2337539345
          0 0 0 -1.7002754211 -4.2851529121 -0.046915378422
          10.503484726 -17.360412598 -0.2615596652 -0.36292943358 -1.5447739363 0.13646833599
          1.4562799931 -12.315465927 0.23440882564 -1.7746078968 -8.0912742615 0.25366863608
          7.5252523422 -14.889529228 0.50634950399 -2.1618299484 -6.1280426979 -6.891979865e-06
          3.7882478237 -14.743045807 3.4347776818e-06 -1.0937045813 -2.7784426212 -0.29298695922
          0.094336405396 -12.346942902 -0.50139576197 -0.80387318134 -2.8978836536 0.34691551328
          8.2677278519 -17.123617172 -0.47725662589 -1.3673930168 -10.316346169 -0.56984293461
          12.762286186 -17.632926941 1.2173491086e-05 0 0 0
          0.10364911705 -12.336759567 -0.24661593139 10.507223129 -17.370948792 1.0434680917e-05
          -0.36710369587 -1.5583480597 -1.6180000557e-06 8.2833204269 -17.154769897 -0.2364871949
          -0.79695445299 -2.9367716312 0.18608693779 -1.3652309179 -10.277691841 -0.27394422889
          -0.39227542281 -10.060948372 0.47776025534 0.11333218217 -12.340039253 -1.6162711063e-06
          -2.5283274651 -8.4311666489 -0.5413466692 -2.2157506943 -6.1603264809 0.061958696693
          2.0910351276 -14.712436676 -0.4813092351 8.2875118256 -17.162984848 8.6526715677e-06
          5.5639686584 -14.773312569 0.47073456645 3.7839262486 -14.73845768 0.22789826989
          -1.3495191336 -10.285134315 -4.8588326536e-06 -0.78704464436 -2.9599144459 -3.2736231788e-06
          -1.6361187696 -4.1367573738 -0.16860517859 12.757361412 -17.622282028 0.28393113613
          6.1503362656 -17.0284729 -0.4322835803 -2.5583701134 -8.4099464417 -0.28516671062
          -1.1959329844 -4.3267974854 0.31917840242 2.1040012836 -14.704174042 -0.23541913927
          1.4562228918 -12.312026024 0.47281879187 -1.7605044842 -8.1249189377 0.53766053915
          0 0 0 -1.2189321518 -4.4162883759 0.16997247934
          10.503487587 -17.360408783 0.26158058643 -0.36292949319 -1.5447736979 -0.13647143543
          6.1696300507 -17.047212601 -0.21509252489 -2.5288276672 -8.3930473328 -7.8204338934e-06
          2.1090800762 -14.705637932 1.5769757056e-06 0.10365240276 -12.336755753 0.24661271274
          6.1732873917 -17.052240372 6.8265471782e-06 -1.2193629742 -4.4454469681 -4.7199464461e-06
          8.2833242416 -17.154766083 0.23650453985 -0.79695475101 -2.9367711544 -0.18609334528
          -1.3652276993 -10.27768898 0.27393457294 -2.1216201782 -6.0004911423 -0.069823823869
          3.7678728104 -14.734046936 0.45761373639 4.2794656754 -17.038820267 -0.42243909836
          12.749591827 -17.591358185 0.56858539581 0 0 0
          -1.563254118 -6.056974411 0.2695633769 -0.42390120029 -1.5448760986 -0.32015097141
          10.493909836 -17.326980591 0.52634292841 -2.5583674908 -8.4099435806 0.28515118361
          2.1040048599 -14.704170227 0.23542231321 4.2992720604 -17.037689209 -0.21091672778
          -0.95198822021 -12.58489418 -0.57967656851 -1.5895367861 -6.1862792969 0.13232338428
          -1.2189323902 -4.416287899 -0.16998167336 6.1696338654 -17.047208786 0.21510623395
          -0.93270874023 -12.552194595 -0.27877423167 0.62427252531 -14.727235794 -0.49551746249
          -2.2271177769 -10.668526649 -0.65189599991 13.699599266 -19.865213394 -0.57561635971
          0 0 0 11.358035088 -19.594978333 -0.52057093382
          0.094342470169 -12.346935272 0.50139254332 -0.80387508869 -2.8978838921 -0.34692153335
          8.2677345276 -17.123609543 0.47727409005 -2.2152216434 -10.615273476 -0.32570818067
          0.63808006048 -14.712882996 -0.24750630558 -1.3673872948 -10.316339493 0.56983321905
          13.699198723 -19.905040741 -0.28703516722 0 0 0
          -1.6076514721 -6.221862793 -5.8734858612e-06 4.302731514 -17.04009819 4.9562977438e-06
          -0.32672682405 -1.5037583113 0.26066300273 11.359680176 -19.636444092 -0.25883296132
          -0.25735795498 -1.4865356684 0.11243041605 -0.91910398006 -12.55506897 -3.8409762055e-06
          8.9885129929 -19.376888275 -0.45918214321 -2.2019708157 -10.609407425 -7.2452776294e-06
          0.64578747749 -14.710355759 -3.9145581354e-07 13.702103615 -19.918180466 1.4306401681e-05
          0 0 0 -0.57692193985 -2.8728575706 0.33258372545
          8.9976634979 -19.415483475 -0.22757531703 11.361392021 -19.64922142 1.2426527974e-05
          -2.5283229351 -8.4311609268 0.54133194685 2.0910418034 -14.712429047 0.48131248355
          -0.25550085306 -1.4916270971 -8.9974849971e-07 -0.53481757641 -2.8728511333 0.17569413781
          6.1503434181 -17.028467178 0.43229740858 -1.1959345341 -4.3267979622 -0.31918689609
          -1.7727584839 -8.0301685333 0.28169628978 2.6575450897 -17.072086334 -0.4520829618
          -1.5895365477 -6.1862783432 -0.13233488798 4.2992758751 -17.037685394 0.21092668176
          -1.8201673031 -8.2285251617 0.083067208529 2.6763389111 -17.056406021 -0.22371153533
          -0.93270552158 -12.552190781 0.27876657248 9.0009660721 -19.42556572 1.0517280316e-05
          -0.5207670331 -2.8804035187 -1.9782030449e-06 6.6735520363 -19.256772995 -0.40219637752
          -2.2152183056 -10.615269661 0.32569372654 0.63808345795 -14.712879181 0.24750550091
          13.699201584 -19.905036926 0.28706380725 0 0 0
          -0.80582219362 -4.2877855301 0.37131282687 6.6877560616 -19.280595779 -0.20000313222
          11.35968399 -19.636440277 0.25885784626 -0.7836625576 -4.3205070496 0.19667135179
          -1.8431931734 -8.2411842346 -6.7747791945e-06 2.6816170216 -17.055440903 3.0309279282e-06
          -0.2573581934 -1.4865357876 -0.11243218184 8.9976673126 -19.41547966 0.22759638727
          6.6901135445 -19.285718918 8.5951505753e-06 -0.7784127593 -4.3373727798 -3.086042625e-06
          4.2794728279 -17.038814545 0.42244917154 -0.51351815462 -14.903082848 -0.55114603043
          -0.53481805325 -2.8728511333 -0.17569807172 -1.5632545948 -6.0569739342 -0.26957413554
          -1.8416737318 -12.931373596 -0.64750438929 -0.48947134614 -14.878414154 -0.26968812943
          -0.95198225975 -12.584886551 0.57966887951 -1.8128745556 -12.890155792 -0.31867170334
          -1.820166707 -8.2285232544 -0.08308056742 2.6763424873 -17.056402206 0.22371758521
          0.62427890301 -14.727228165 0.49551656842 -2.2271120548 -10.66851902 0.65188151598
          -0.99150806665 -5.9048986435 0.41152992845 4.6894783974 -19.281562805 -0.38507968187
          13.699605942 -19.865205765 0.57564508915 0 0 0
          11.358042717 -19.594970703 0.52059584856 -0.98296189308 -5.9776806831 0.2147809267
          -0.47833827138 -14.878489494 -2.6042800982e-06 -2.0561816692 -10.232597351 0.23975977302
          1.1664773226 -17.089317322 -0.48907750845 4.709397316 -19.278085709 -0.19301007688
          -0.32672807574 -1.5037591457 -0.26066493988 -1.800173521 -12.884173393 -6.2727262957e-06
          6.6877598763 -19.280591965 0.20002035797 -0.78366303444 -4.3205070496 -0.19667744637
          1.1816232204 -17.066091537 -0.24150708318 -2.174151659 -10.464128494 -0.022876767442
          8.9885206223 -19.376880646 0.45920330286 -0.98359924555 -6.0058617592 -4.1622502067e-06
          4.7123227119 -19.279491425 6.6388083724e-06 -0.57692372799 -2.8728587627 -0.33258759975
          1.1866629124 -17.060123444 9.5219763807e-07 14.673219681 -22.217435837 -0.59241473675
          0 0 0 -2.1197242737 -10.426952362 -7.5182219916e-06
          14.667451859 -22.266338348 -0.29542854428 0 0 0
          -0.48946809769 -14.878410339 0.26968288422 12.229618073 -21.938425064 -0.5257011652
          -1.7727583647 -8.030166626 -0.28170847893 2.6575520039 -17.072076797 0.45208901167
          -0.20730836689 -1.4135096073 0.2008870244 -1.8128712177 -12.890151978 0.31865918636
          12.225689888 -21.988147736 -0.26185780764 -0.14026470482 -1.3844454288 0.08454696089
          6.6735596657 -19.256765366 0.40221369267 14.668551445 -22.28237915 1.6525285901e-05
          -0.9829621911 -5.9776802063 -0.21478912234 9.7310619354 -21.699365616 -0.45591706038
          -0.3172338903 -2.7027394772 0.29311427474 4.7094011307 -19.278081894 0.19302338362
          0 0 0 3.1348569393 -19.356063843 -0.42481434345
          -1.1572208405 -7.7915539742 0.44616308808 -0.80582386255 -4.2877864838 -0.37131869793
          -0.25586438179 -2.6791539192 0.15147057176 9.7350292206 -21.74741745 -0.22585572302
          12.22582531 -22.003992081 1.4496950826e-05 1.1816265583 -17.066087723 0.24150899053
          -1.1645553112 -7.9048304558 0.23294116557 3.1546156406 -19.334985733 -0.21044132113
          -2.1741509438 -10.464126587 0.02286204882 -0.13476271927 -1.3833273649 -2.3673793237e-07
          -1.4346693754 -15.207050323 -0.6100075841 9.7377586365 -21.761310577 1.2459938262e-05
          -0.51351195574 -14.903074265 0.55114072561 -0.23748765886 -2.6768815517 -6.8919018759e-07
          -1.1653485298 -7.9470672607 -5.2081813919e-06 -1.404250741 -15.174830437 -0.29899740219
          3.1607277393 -19.332553864 4.6047848627e-06 -1.8416676521 -12.931365013 0.64749193192
          14.667455673 -22.266334534 0.29546159506 7.2309465408 -21.522451401 -0.38676288724
          -2.5717325211 -13.271179199 -0.61973440647 0 0 0
          -0.3700119257 -4.0247092247 0.37546870112 -0.059902146459 -17.185598373 -0.51618164778
          -0.32029259205 -4.0218162537 0.19664013386 7.2433562279 -21.558586121 -0.19084270298
          12.225693703 -21.988143921 0.2618868053 -2.5657527447 -13.261429787 -0.32440194488
          -0.037379559129 -17.164762497 -0.2576135695 -0.14026503265 -1.3844455481 -0.084547489882
          -0.99150955677 -5.9048995972 -0.41153767705 4.6894860268 -19.281553268 0.38509306312
          -1.3909873962 -15.171728134 -5.0966318668e-06 -2.0561811924 -10.232596397 -0.2397724092
          1.1664838791 -17.089307785 0.4890794158 7.2473430634 -21.566953659 1.0442285202e-05
          9.7350330353 -21.747413635 0.22588066757 -2.5366642475 -13.234491348 -8.6514064606e-06
          -0.25586500764 -2.6791539192 -0.15147203207 -0.30783435702 -4.0240864754 -1.3092436575e-06
          -1.1645554304 -7.9048295021 -0.23295131326 3.1546192169 -19.334981918 0.21045053005
          -0.030091589317 -17.158027649 -1.2994551071e-06 1.7244309187 -19.395687103 -0.46697345376
          -1.3185510635 -10.011704445 0.42553800344 1.7428815365 -19.371660233 -0.2312130928
          -1.3214398623 -10.159172058 0.22249369323 14.67322731 -22.2174263 0.59244787693
          0 0 0 -1.4042472839 -15.174826622 0.2989872396
          -0.37436804175 -5.5406832695 0.44759875536 5.0446386337 -21.493164062 -0.34921628237
          -0.33809533715 -5.5615615845 0.23552715778 12.229625702 -21.938417435 0.52573019266
          -0.20730927587 -1.4135104418 -0.20088784397 5.067117691 -21.490978241 -0.17568777502
          7.2433600426 -21.558582306 0.19086359441 -2.5657494068 -13.261426926 0.32438480854
          -0.3202932775 -4.0218162537 -0.19664283097 -0.03737622872 -17.164758682 0.2576110065
          1.7494490147 -19.364910126 2.4325227059e-06 -1.3498295546 -10.207330704 -6.112351457e-06
          9.7310695648 -21.699357986 0.45594206452 -0.31723541021 -2.7027406693 -0.29311597347
          3.1348640919 -19.356056213 0.42482355237 -0.33083087206 -5.570663929 -2.1510431907e-06
          -1.1572219133 -7.791554451 -0.44617253542 5.0699439049 -21.492588043 8.4231414803e-06
          15.677463531 -24.674489975 -0.61252421141 0 0 0
          -1.4346628189 -15.20704174 0.60999751091 1.7428851128 -19.371656418 0.23121799529
          0 0 0 13.119686127 -24.385389328 -0.53646451235
          -2.2098147869 -15.583631516 -0.66716903448 -1.321439147 -10.159170151 -0.22250574827
          -0.034790735692 -1.2336518764 0.12714669108 -1.0284974575 -17.433992386 -0.5684877634
          15.669382095 -24.731172562 -0.30582153797 7.2309541702 -21.522443771 0.38678383827
          13.113170624 -24.442537308 -0.26788502932 0.021219754592 -1.1974664927 0.052972324193
          -2.571726799 -13.27117157 0.61971825361 -2.1784698963 -15.546725273 -0.32891082764
          -0.37001365423 -4.0247106552 -0.37547159195 3.5678036213 -21.561685562 -0.39973038435
          -0.33809584379 -5.5615611076 -0.23553147912 -0.059895623475 -17.185588837 0.51617908478
          -0.33241280913 -7.3770227432 0.49822613597 5.0671215057 -21.490974426 0.17570462823
          -1.0006872416 -17.408901215 -0.2770370543 -0.30769184232 -7.4132909775 0.2632714808
          3.5901253223 -21.536588669 -0.19750650227 10.505495071 -24.126764297 -0.45927932858
          15.669159889 -24.74993515 1.8798991732e-05 0.066110402346 -2.383739233 0.2338719666
          0 0 0 10.506193161 -24.184835434 -0.22789004445
          0.13353073597 -2.3441083431 0.11133055389 13.112255096 -24.461414337 1.6608559235e-05
          0.41800561547 -19.434558868 -0.48415505886 -2.1649150848 -15.539306641 -7.7736667663e-06
          -0.99060791731 -17.405916214 -3.7675736166e-06 -1.3639413118 -12.390498161 0.59439486265
          0.026556411758 -1.1943342686 3.4367855051e-07 0.43306729198 -19.413999557 -0.24559746683
          3.5983510017 -21.533277512 6.2749177232e-06 -1.4267205 -12.6269207 0.18305452168
          -0.30877757072 -7.4312434196 -3.1025367662e-06 1.724437952 -19.395677567 0.46697843075
          10.507820129 -24.202659607 1.4423124412e-05 -1.3185505867 -10.011703491 -0.42554938793
          0.14783427119 -2.3405070305 5.0219870218e-07 7.8688673973 -23.895332336 -0.37288433313
          15.66938591 -24.73116684 0.3058591485 0.43952155113 -19.405694962 1.6027301797e-07
          0.19825536013 -3.5629687309 0.3542728126 -0.37436962128 -5.5406847 -0.4476030767
          -1.44348526 -12.648357391 -6.7398191277e-06 5.04464674 -21.493156433 0.34923318028
          0 0 0 7.8809518814 -23.949588776 -0.18396964669
          0.26336944103 -3.5368902683 0.16689875722 13.113174438 -24.442531586 0.2679182291
          -2.1784660816 -15.546720505 0.32889536023 -1.0006836653 -17.408895493 0.27702960372
          0.021219441667 -1.1974664927 -0.052971769124 3.590129137 -21.536582947 0.19751907885
          -0.30769202113 -7.4132909775 -0.26327762008 10.506196976 -24.184831619 0.227918908
          7.8857784271 -23.963338852 1.2269188119e-05 2.2335188389 -21.592645645 -0.44239833951
          -0.25932025909 -9.4338951111 0.56404578686 0.28052425385 -3.5443022251 4.9332402341e-07
          0.13353002071 -2.3441078663 -0.11132969707 -0.25003018975 -9.4955711365 0.28476598859
          0.43307098746 -19.413995743 0.24559786916 2.2504653931 -21.56571579 -0.22092436254
          -1.4267200232 -12.626917839 -0.18306790292 5.4127149582 -23.736814499 -0.29604184628
          15.677471161 -24.674482346 0.61256182194 0 0 0
          0.35820916295 -4.9441537857 0.46692326665 5.4442596436 -23.744211197 -0.15117698908
          13.119693756 -24.385379791 0.53649771214 0.40113160014 -4.9284744263 0.22545003891