<?xml version="1.0"?>
<VTKFile type="UnstructuredGrid" version="0.1" byte_order="LittleEndian" header_type="UInt32" compressor="vtkZLibDataCompressor">
  <UnstructuredGrid>
    <Piece NumberOfPoints="6405" NumberOfCells="4800">
      <PointData>
        <DataArray type="Float32" Name="DISPLACEMENT" NumberOfComponents="3" ComponentName0="X-DISPLACEMENT" ComponentName1="Y-DISPLACEMENT" ComponentName2="Z-DISPLACEMENT" format="ascii" RangeMin="0" RangeMax="489.91726486">
          0 0 0 0 0 0
          2.7941260338 -1.5471273661 -1.3235242367 0 0 0
          1.8330901861 -0.82865273952 -1.0158778429 0 0 0
          2.5369803905 -1.7383867502 -0.53140348196 1.5879781246 -0.99489420652 -0.414370507
          0 0 0 5.125336647 -2.8406879902 -1.4184161425
          0 0 0 5.0325627327 -3.0894684792 -0.72918778658
          3.6997134686 -2.2433292866 -1.1413149834 0 0 0
          0 0 0 2.5479309559 -1.8051630259 2.7307004657e-08
          1.2736836672 -0.50284802914 -0.75413405895 1.5801725388 -1.0313886404 3.7977098799e-08
          3.6070246696 -2.4505848885 -0.58192807436 1.0944538116 -0.66007834673 -0.3053022325
          4.9774971008 -3.1613459587 1.4719206831e-07 2.5489771366 -1.7717905045 -0.84644240141
          0 0 0 3.5557644367 -2.5190479755 1.5576731016e-07
          2.4713563919 -1.9681922197 -0.43364360929 0 0 0
          7.3510146141 -4.6411919594 -1.3906701803 0 0 0
          1.0873401165 -0.69150221348 3.4622129164e-08 0 0 0
          0 0 0 2.536980629 -1.7383867502 0.53140360117
          5.5001006126 -4.0416002274 -1.1168080568 7.3512372971 -4.8539958 -0.70632874966
          0.79758036137 -0.33052140474 -0.4735609591 1.5879782438 -0.99489420652 0.41437059641
          5.5008301735 -4.2449069023 -0.56825095415 0.68344765902 -0.48799616098 -0.19472283125
          2.4290685654 -2.02515769 1.4796590619e-07 5.0325632095 -3.0894684792 0.72918814421
          0 0 0 0 0 0
          1.540389657 -1.5060453415 -0.53986179829 3.8730142117 -3.5811004639 -0.84464454651
          7.331717968 -4.928311348 3.402243749e-07 3.6070249081 -2.4505848885 0.58192837238
          3.8606398106 -3.77820611 -0.42872065306 1.0944539309 -0.66007834673 0.30530232191
          5.4842615128 -4.311768055 3.4109251601e-07 1.4820296764 -1.6984148026 -0.27739867568
          0.67939138412 -0.51408481598 2.4968743517e-08 0 0 0
          9.517118454 -6.8449487686 -1.3047446012 0 0 0
          7.2600560188 -6.2712006569 -1.0591751337 2.4713566303 -1.9681922197 0.43364393711
          9.5492334366 -7.0307950974 -0.65754258633 2.7941262722 -1.5471274853 1.3235243559
          0 0 0 0 0 0
          1.4546126127 -1.7525275946 1.2732374444e-07 3.8450460434 -3.8390443325 3.2396135907e-07
          0.25646230578 -0.2813218832 -0.19114178419 7.2886443138 -6.4542303085 -0.53361856937
          1.8330904245 -0.82865273952 1.0158779621 2.3526833057 -3.2835381031 -0.56202697754
          0 0 0 7.3512377739 -4.8539958 0.70632946491
          0.19080470502 -0.44153919816 -0.084263324738 2.3283951283 -3.4732451439 -0.28539088368
          5.5008306503 -4.2449064255 0.56825166941 0.68344783783 -0.48799610138 0.19472290576
          5.197455883 -5.8241086006 -0.81465530396 0.47279173136 -1.4160912037 -0.24960385263
          9.5473585129 -7.0930929184 6.0425441006e-07 5.1253371239 -2.8406879902 1.4184166193
          0 0 0 0 0 0
          5.2070569992 -6.0038876534 -0.40938195586 3.6997139454 -2.2433292866 1.141315341
          7.290769577 -6.5150237083 5.9430124111e-07 0.4230581522 -1.5987346172 -0.13205395639
          1.2736839056 -0.50284796953 0.75413423777 0.18402664363 -0.47323212028 -2.0882962026e-09
          2.3139760494 -3.5299134254 2.9120386102e-07 3.860640049 -3.77820611 0.42872130871
          1.4820299149 -1.6984148026 0.2773989439 5.2051448822 -6.0614523888 5.6433475493e-07
          2.5489776134 -1.7717905045 0.84644275904 0.40483820438 -1.6542297602 8.6984606185e-08
          3.2138719559 -5.5265808105 -0.56809276342 9.5492343903 -7.0307950974 0.65754383802
          7.3510150909 -4.6411919594 1.3906708956 0 0 0
          11.588537216 -9.4325647354 -1.2247854471 0 0 0
          0 0 0 0.79299533367 -3.1557228565 -0.30053341389
          3.2025494576 -5.6973576546 -0.28586041927 11.62451458 -9.5943393707 -0.61326313019
          8.959815979 -8.8838119507 -1.0074192286 7.2886447906 -6.4542303085 0.53361976147
          -0.23229661584 -0.39579749107 0.064538069069 0 0 0
          5.5001015663 -4.0416002274 1.1168088913 0.79758065939 -0.33052131534 0.47356110811
          0.75728183985 -3.3319530487 -0.15411950648 0.19080486894 -0.44153910875 0.084263347089
          -0.25878962874 -0.54443788528 0.027118293568 2.3283956051 -3.4732451439 0.28539147973
          8.9911966324 -9.0457086563 -0.50433254242 5.207057476 -6.0038876534 0.40938311815
          3.1964108944 -5.7516446114 5.1477127272e-07 11.629167557 -9.6483201981 9.4402787454e-07
          -0.43593204021 -1.5204799175 -0.01068930421 0.42305842042 -1.5987346172 0.1320541501
          0 0 0 6.5029001236 -8.4536552429 -0.79147183895
          1.5403902531 -1.5060452223 0.53986215591 3.8730151653 -3.5811002254 0.84464526176
          0.74494415522 -3.3877038956 2.3448242814e-07 8.9986877441 -9.0991191864 9.2063737611e-07
          -0.2730357945 -0.5782764554 -4.1933144956e-08 -0.48743498325 -1.685883522 -0.0015295689227
          6.5151696205 -8.6124048233 -0.39503341913 9.5171194077 -6.8449487686 1.3047459126
          0 0 0 1.2162730694 -5.3807678223 -0.34568420053
          7.2600569725 -6.2712006569 1.059176445 -0.50038099289 -1.7413747311 2.7866505548e-08
          1.1879091263 -5.5354785919 -0.17404979467 6.5180559158 -8.6639108658 8.7574613872e-07
          0.25646260381 -0.28132173419 0.1911418885 3.2025501728 -5.6973571777 0.28586146235
          4.1042575836 -8.1577100754 -0.57757121325 11.624515533 -9.5943393707 0.61326503754
          -0.53513336182 -3.2256557941 -0.097120456398 2.352684021 -3.2835378647 0.56202763319
          0 0 0 0.75728225708 -3.3319528103 0.15411998332
          4.095990181 -8.3065700531 -0.2887044549 -0.25878944993 -0.54443776608 -0.027118345723
          -0.59318912029 -3.3750288486 -0.044909540564 8.9911975861 -9.0457086563 0.50433439016
          5.1974568367 -5.8241081238 0.81465649605 0.47279220819 -1.4160909653 0.24960410595
          13.555994987 -12.358437538 -1.1567158699 0 0 0
          1.1797043085 -5.5877099037 4.4127682486e-07 10.594539642 -11.83510685 -0.96526747942
          13.588097572 -12.500659943 -0.5779517293 0 0 0
          -0.6359987855 -0.59436351061 0.29438596964 10.62217617 -11.977588654 -0.48211705685
          4.0932855606 -8.3550033569 8.0802982438e-07 -0.63420462608 -0.72533541918 0.12739245594
          -0.48743468523 -1.6858834028 0.001529650297 -0.60996180773 -3.4290111065 1.5979618695e-07
          6.5151705742 -8.6124048233 0.39503517747 7.7837753296 -11.419706345 -0.77529418468
          -1.1177023649 -1.7801799774 0.18749308586 13.59368515 -12.547821045 1.3591086372e-06
          0 0 0 -1.2106180191 -1.9268282652 0.10586898774
          7.7944345474 -11.558784485 -0.38621371984 10.629981995 -12.024546623 1.3216990737e-06
          -0.65634167194 -0.75049322844 -6.686630627e-08 3.2138729095 -5.5265803337 0.56809389591
          1.7252299786 -7.9980945587 -0.38971343637 11.58853817 -9.4325647354 1.2247873545
          0 0 0 -0.49944651127 -5.4256262779 -0.1845818758
          1.1879096031 -5.5354785919 0.17405070364 0.79299610853 -3.1557226181 0.30053395033
          8.9598169327 -8.8838119507 1.0074211359 -0.23229631782 -0.39579731226 -0.064538024366
          -0.55324262381 -5.5476946831 -0.086636535823 1.7004598379 -8.1294775009 -0.19444350898
          4.0959906578 -8.3065700531 0.28870609403 -0.59318870306 -3.3750286102 0.044909883291
          7.7979850769 -11.604068756 1.2610477143e-06 -1.2493742704 -1.9779876471 -3.1302548109e-08
          5.0211811066 -11.124850273 -0.58994531631 -1.4924229383 -3.4984018803 0.047051012516
          -0.43593147397 -1.5204796791 0.01068946626 13.588098526 -12.500659943 0.57795447111
          6.5029015541 -8.4536552429 0.7914736867 0 0 0
          1.6945639849 -8.1752920151 7.2031997433e-07 -0.56850230694 -5.5939764977 3.5410303667e-07
          5.0143585205 -11.253675461 -0.29417082667 10.622177124 -11.977588654 0.48211973906
          -1.5955775976 -3.6145699024 0.030260449275 -0.63420450687 -0.72533529997 -0.12739256024
          1.2162740231 -5.3807673454 0.345685184 5.0130143166 -11.296017647 1.1780599607e-06
          7.7944355011 -11.558783531 0.38621628284 -1.2106177807 -1.926828146 -0.10586901754
          -1.6308799982 -3.6584913731 8.0342104525e-08 15.424716949 -15.582177162 -1.0994149446
          0 0 0 15.452094078 -15.707892418 -0.54911184311
          4.1042585373 -8.1577091217 0.57757288218 12.168091774 -15.081459999 -0.93028843403
          -0.53513252735 -3.2256555557 0.097120888531 -0.33803641796 -8.0172319412 -0.26241624355
          -1.3793284893 -0.88893514872 0.5397002697 -0.55324202776 -5.5476946831 0.086637280881
          1.7004605532 -8.1294775009 0.1944449842 0 0 0
          12.191626549 -15.207273483 -0.46442851424 -0.38400992751 -8.1145305634 -0.12471328676
          -1.357344389 -1.0409735441 0.22040228546 2.3092834949 -10.953270912 -0.43061882257
          -1.7161746025 -5.6884965897 -0.079871065915 13.555996895 -12.358437538 1.1567187309
          0 0 0 10.594540596 -11.83510685 0.96527022123
          15.457166672 -15.749547005 1.8527540533e-06 -1.8088823557 -5.7650299072 -0.033063594252
          2.2882802486 -11.063865662 -0.2141867578 -0.63599860668 -0.59436327219 -0.29438599944
          9.0421695709 -14.678039551 -0.76270645857 -2.1639642715 -2.0569076538 0.38392221928
          0 0 0 5.0143594742 -11.253675461 0.29417318106
          -1.5955771208 -3.6145699024 -0.030260259286 12.198500633 -15.248702049 1.7990024617e-06
          -0.39615938067 -8.1530094147 6.2204901496e-07 9.0514583588 -14.800226212 -0.37991282344
          -2.3053319454 -2.2112462521 0.20221336186 -1.3641030788 -1.0844572783 -1.1746773509e-07
          7.7837767601 -11.419706345 0.77529680729 -1.1177018881 -1.780179739 -0.18749304116
          2.2838521004 -11.10313797 1.0756697293e-06 -1.838722229 -5.7939524651 2.6542585374e-07
          1.7252311707 -7.9980940819 0.38971498609 9.0547780991 -14.84003067 1.7214567833e-06
          -2.3810436726 -2.2731330395 -9.9841308554e-08 -0.49944540858 -5.4256258011 0.18458271027
          15.452095032 -15.707892418 0.5491155386 5.9595074654 -14.382704735 -0.60073423386
          0 0 0 -2.8773052692 -3.7936346531 0.19327645004
          5.9548258781 -14.494774818 -0.29948294163 12.191627502 -15.207273483 0.46443215013
          -1.3573441505 -1.0409734249 -0.22040247917 -0.38400918245 -8.1145296097 0.12471456826
          -3.009141922 -3.8791658878 0.087843932211 5.0211830139 -11.124849319 0.58994776011
          -0.062930576503 -10.949350357 -0.3299331367 2.2882809639 -11.063865662 0.21418893337
          -1.4924222231 -3.4984016418 -0.047050736845 -1.8088817596 -5.7650299072 0.033064156771
          -1.8017272949 -8.2739505768 -0.19161042571 -0.10043875128 -11.025771141 -0.15786491334
          5.9542469978 -14.531701088 1.6217080656e-06 9.0514593124 -14.800225258 0.37991628051
          -2.305331707 -2.2112462521 -0.20221352577 -1.8795047998 -8.3184604645 -0.088957034051
          -3.0513534546 -3.9123384953 -3.3941678357e-09 17.206789017 -19.067420959 -1.051194787
          0 0 0 -1.9853800535 -1.3904756308 0.73325055838
          -0.10989221931 -11.056932449 9.6194150956e-07 2.954941988 -14.20035553 -0.46417185664
          13.687998772 -18.585912704 -0.9005407095 15.424718857 -15.582177162 1.0994187593
          0 0 0 0 0 0
          -1.9040839672 -8.3376531601 5.2231035852e-07 -3.3490171432 -5.9710636139 0.0041516730562
          17.230003357 -19.17950058 -0.5250864625 2.9387052059 -14.294149399 -0.23079226911
          13.708115578 -18.697954178 -0.44959765673 12.168093681 -15.081459999 0.93029212952
          -1.995218277 -1.546246767 0.30363929272 -0.33803501725 -8.0172309875 0.26241761446
          -1.3793282509 -0.8889349103 -0.53970038891 -3.4639148712 -6.0096211433 -0.0038084525149
          5.9548268318 -14.494773865 0.29948621988 -3.0091414452 -3.8791656494 -0.08784390986
          10.281101227 -18.191921234 -0.75135546923 2.3092851639 -10.953269958 0.43062108755
          -1.7161735296 -5.6884965897 0.079871721566 0 0 0
          -3.0691020489 -2.5111613274 0.45401844382 17.234466553 -19.216638565 2.4267419576e-06
          -2.0367131233 -1.632075429 -1.7286444631e-07 2.9354531765 -14.327778816 1.5027878817e-06
          10.289793015 -18.300346375 -0.37440046668 9.0421714783 -14.678038597 0.76271003485
          13.714038849 -18.734828949 2.3541060727e-06 -2.1639637947 -2.0569074154 -0.38392230868
          -3.4937829971 -6.0323238373 1.7553789178e-07 -3.240452528 -2.6340975761 0.25897702575
          -0.10043787211 -11.025771141 0.1578668803 -1.8795040846 -8.3184595108 0.088958106935
          -1.7596201897 -11.18416214 -0.28260809183 10.292901039 -18.335651398 2.257575261e-06
          -3.2980601788 -2.7156541348 -1.6816699144e-07 -1.8201584816 -11.205720901 -0.13497467339
          6.9147825241 -17.895011902 -0.60807007551 0 0 0
          -3.955945015 -4.3087444305 0.14238506556 17.230003357 -19.17950058 0.52509135008
          -1.9952180386 -1.5462466478 -0.30363959074 2.9387059212 -14.294149399 0.23079529405
          6.9127373695 -17.99382019 -0.3032078445 5.9595093727 -14.382704735 0.60073757172
          13.708116531 -18.697954178 0.4496023953 0.31079536676 -14.173400879 -0.38325878978
          -3.6327741146 -8.568066597 -0.16468457878 -2.877304554 -3.7936344147 -0.19327633083
          -4.1196494102 -4.317574501 0.085515491664 -3.463914156 -6.0096211433 0.003808840178
          0.28228330612 -14.233848572 -0.18445441127 -3.7278478146 -8.5644407272 -0.088874697685
          -1.8396611214 -11.217350006 8.5139595285e-07 -0.062928885221 -10.949349403 0.32993519306
          10.289793968 -18.300346375 0.37440499663 -1.8017258644 -8.2739496231 0.1916116029
          6.9129085541 -18.026397705 2.1388341338e-06 -3.2404522896 -2.6340973377 -0.25897732377
          -4.1533193588 -4.3467745781 -8.2180292793e-08 0.27507859468 -14.258916855 1.3736206483e-06
          -3.7528207302 -8.579492569 4.2649176635e-07 -4.4623160362 -6.4439806938 -0.15504917502
          3.6504592896 -17.702121735 -0.4890050292 17.206792831 -19.067420959 1.0511996746
          0 0 0 -1.8201575279 -11.205720901 0.13497641683
          -1.9853798151 -1.3904753923 -0.73325079679 -4.6095590591 -6.4065070152 -0.055605821311
          2.9549436569 -14.20035553 0.46417498589 13.688001633 -18.585912704 0.90054553747
          3.6394150257 -17.783143997 -0.24313977361 18.915895462 -22.784475327 -1.0111261606
          0 0 0 -3.3490159512 -5.9710636139 -0.0041511794552
          18.935520172 -22.885736465 -0.50512927771 -0.5866844058 -2.4833974838 0.099324032664
          15.162043571 -22.318876266 -0.8750475049 6.9127383232 -17.99382019 0.30321213603
          0 0 0 -4.1196489334 -4.317574501 -0.085515610874
          15.179299355 -22.420028687 -0.43691974878 -0.61029577255 -2.3699223995 0.097856201231
          0.2822843492 -14.233848572 0.18445718288 -3.7278470993 -8.5644407272 0.088875591755
          10.281103134 -18.191921234 0.75136011839 -4.6317987442 -6.4312868118 9.2528715356e-08
          3.6374034882 -17.812286377 2.0009367745e-06 -3.069101572 -2.5111610889 -0.45401862264
          -1.5975666046 -14.373634338 -0.34950277209 -1.2697515488 -3.7645661831 -0.057558026165
          11.502809525 -21.93239975 -0.74035775661 -3.7567079067 -11.454248428 -0.29080998898
          18.939529419 -22.919288635 3.0805019833e-06 0 0 0
          -1.6422729492 -14.379850388 -0.16971352696 15.18444252 -22.453300476 2.9867542253e-06
          -0.61169332266 -2.4498302937 -5.2671850881e-08 11.511322021 -22.030086517 -0.36905631423
          -1.3370785713 -3.7295458317 0.06438421458 -3.828142643 -11.426823616 -0.15409855545
          -1.7596185207 -11.184161186 0.28260993958 -1.6568753719 -14.386164665 1.2518347603e-06
          -4.5758399963 -9.1252689362 -0.44704294205 -4.6095581055 -6.4065070152 0.055606067181
          0.76695644855 -17.651485443 -0.42122095823 11.514341354 -22.061891556 2.8689357805e-06
          6.9147844315 -17.895011902 0.60807448626 3.6394162178 -17.783143997 0.24314379692
          -3.8486406803 -11.43669796 7.4855086041e-07 -1.3613268137 -3.7686276436 -4.0903209708e-09
          -3.9559442997 -4.3087444305 -0.14238505065 18.935520172 -22.885736465 0.50513541698
          7.8825359344 -21.633365631 -0.61152482033 -4.6889925003 -9.0542936325 -0.18767800927
          -1.5216269493 -5.3752889633 -0.20230336487 0.74726486206 -17.700382233 -0.20382080972
          0.31079736352 -14.173399925 0.3832616806 -3.6327726841 -8.5680656433 0.16468560696
          0 0 0 -1.6118258238 -5.3832135201 -0.019463483244
          15.179300308 -22.420028687 0.43692573905 -0.61029559374 -2.3699221611 -0.097856290638
          7.8831496239 -21.722158432 -0.30499237776 -4.708533287 -9.0740680695 3.4561830375e-07
          0.74232792854 -17.72069931 1.8545330249e-06 -1.6422718763 -14.379849434 0.16971606016
          7.8840694427 -21.7514534 2.7288317597e-06 -1.6604694128 -5.3413124084 1.052418952e-07
          11.511323929 -22.030086517 0.36906206608 -1.3370783329 -3.7295458317 -0.06438421458
          -3.8281416893 -11.426823616 0.15410010517 -4.4623150826 -6.443980217 0.15504959226
          3.6504614353 -17.702119827 0.48900914192 4.3851070404 -21.430250168 -0.50539928675
          18.915897369 -22.784475327 1.0111323595 0 0 0
          -1.5591365099 -7.3792786598 -0.31240484118 -0.58668410778 -2.4833974838 -0.099324002862
          15.162046432 -22.318876266 0.87505358458 -4.6889915466 -9.0542936325 0.18767878413
          0.74726605415 -17.700380325 0.20382454991 4.3791408539 -21.502084732 -0.25124180317
          -3.7229907513 -14.598164558 -0.37895011902 -1.6312817335 -7.5011520386 -0.1102059111
          -1.6118254662 -5.3832130432 0.019463729113 7.8831510544 -21.722158432 0.30499786139
          -3.7759160995 -14.557806015 -0.20047463477 -1.338691473 -17.809839249 -0.39647650719
          -4.4030418396 -11.9559412 -0.60773020983 20.565170288 -26.710508347 -0.97848552465
          0 0 0 16.597223282 -26.257932663 -0.85326117277
          -1.5975646973 -14.373633385 0.3495054245 -1.2697511911 -3.7645661831 0.057558137923
          11.502812386 -21.932397842 0.74036359787 -4.4753479958 -11.891366959 -0.28166893125
          -1.370123744 -17.804811478 -0.19561892748 -3.7567062378 -11.454247475 0.29081168771
          20.58164978 -26.803672791 -0.4888304472 0 0 0
          -1.6597437859 -7.5020546913 3.0604746826e-07 4.3784284592 -21.527914047 2.5699202979e-06
          0.79696804285 -2.8836872578 -0.37544047832 16.612005234 -26.350923538 -0.426073879
          0.85047268867 -2.8058319092 -0.12088022381 -3.7909538746 -14.564436913 1.1408816363e-06
          12.708576202 -25.877685547 -0.72942024469 -4.4880256653 -11.917881012 6.7886549004e-07
          -1.3797576427 -17.808513641 1.720526484e-06 20.585313797 -26.834514618 3.8134307943e-06
          0 0 0 1.2839267254 -3.9848046303 0.089578919113
          12.717054367 -25.967399597 -0.36369752884 16.61648941 -26.381481171 3.6962856029e-06
          -4.5758385658 -9.1252679825 0.44704395533 0.76695871353 -17.651485443 0.42122480273
          0.86729001999 -2.8258476257 1.1510119435e-07 1.4045341015 -3.9576084614 0.052467275411
          7.8825383186 -21.633365631 0.61153036356 -1.5216262341 -5.3752889633 0.2023037672
          -1.5812770128 -9.9497337341 -0.43006321788 1.2886511087 -21.356876373 -0.44596132636
          -1.6312813759 -7.5011520386 0.11020656675 4.3791422844 -21.502084732 0.25124698877
          -1.6318019629 -10.109872818 -0.19618573785 1.277449131 -21.397880554 -0.21670155227
          -3.7759149075 -14.557806015 0.20047697425 12.720015526 -25.996622086 3.5552684494e-06
          1.3692363501 -3.9299180508 2.6959222055e-07 8.8582201004 -25.576570511 -0.61128020287
          -4.4753465652 -11.891366959 0.28167036176 -1.3701226711 -17.804811478 0.19562239945
          20.58164978 -26.803672791 0.48883810639 0 0 0
          1.5230910778 -5.2582755089 0.52579039335 8.861205101 -25.658212662 -0.30489450693
          16.612007141 -26.350923538 0.42608129978 1.5448262691 -5.2897305489 0.1980600208
          -1.6318631172 -10.106897354 5.6797955494e-07 1.274911046 -21.414974213 2.4038326956e-06
          0.85047274828 -2.8058319092 0.12088046223 12.717055321 -25.96739769 0.36370465159
          8.8627557755 -25.685192108 3.3918900044e-06 1.5270447731 -5.2539057732 4.4148873712e-07
          4.3851099014 -21.430250168 0.50540453196 -3.555747509 -17.996103287 -0.45318427682
          1.4045342207 -3.9576084614 -0.052466720343 -1.5591356754 -7.3792791367 0.31240567565
          -4.0610342026 -15.023356438 -0.71378898621 -3.5926983356 -17.945461273 -0.23742866516
          -3.7229886055 -14.598164558 0.37895259261 -4.104019165 -14.970341682 -0.34403035045
          -1.631801486 -10.109872818 0.19618691504 1.2774504423 -21.397880554 0.21670639515
          -1.3386893272 -17.809837341 0.39648008347 -4.4030394554 -11.9559412 0.60773193836
          1.3734610081 -7.5904483795 0.38247463107 5.1493854523 -25.363420486 -0.51414275169
          20.565174103 -26.710508347 0.97849327326 0 0 0
          16.597227097 -26.257932663 0.85326862335 1.3025411367 -7.774356842 0.20783810318
          -3.6003453732 -17.951951981 1.5978537249e-06 -1.4109230042 -12.473511696 -0.58442384005
          -1.0097440481 -21.476305008 -0.42995640635 5.14802742 -25.429307938 -0.2554730773
          0.79696828127 -2.8836872578 0.37544077635 -4.1031770706 -15.005163193 1.0845287761e-06
          8.8612060547 -25.658212662 0.30490130186 1.5448263884 -5.2897305489 -0.19805915654
          -1.0276360512 -21.463916779 -0.21453750134 -1.4404760599 -12.666448593 -0.28045743704
          12.708579063 -25.877685547 0.72942745686 1.2594590187 -7.7476472855 6.3397669692e-07
          5.1484947205 -25.452917099 3.2095360893e-06 1.283927083 -3.9848046303 -0.089578382671
          -1.0323300362 -21.467334747 2.2511269435e-06 22.166585922 -30.829023361 -0.95253819227
          0 0 0 -1.4208413363 -12.692381859 8.8163290002e-07
          22.180263519 -30.916601181 -0.47579610348 0 0 0
          -3.5926971436 -17.945459366 0.23743189871 17.999534607 -30.387048721 -0.83468413353
          -1.5812758207 -9.9497337341 0.43006452918 1.2886537313 -21.356874466 0.44596627355
          2.7990705967 -2.3459546566 -0.50331956148 -4.1040177345 -14.970341682 0.34403258562
          18.01212883 -30.474349976 -0.41678723693 2.8737120628 -2.3531017303 -0.18290410936
          8.8582229614 -25.576570511 0.6112870574 22.183609009 -30.945514679 4.6281570576e-06
          1.3025410175 -7.7743573189 -0.20783685148 13.898799896 -30.012441635 -0.71832489967
          3.9406552315 -3.4267020226 0.12332579494 5.1480283737 -25.429307938 0.2554795444
          0 0 0 1.8608919382 -25.266222 -0.45833075047
          0.92996674776 -10.024106979 0.33337724209 1.5230913162 -5.2582755089 -0.52578955889
          4.0394864082 -3.3146588802 0.00056555698393 13.907214165 -30.096582413 -0.35819533467
          18.015995026 -30.502965927 4.4851813072e-06 -1.0276347399 -21.463916779 0.21454203129
          0.81335180998 -10.264566422 0.15493836999 1.8578056097 -25.303430557 -0.22347378731
          -1.4404754639 -12.666448593 0.28045922518 2.7592568398 -2.3918440342 2.3608934896e-07
          -3.5230426788 -18.373620987 -0.81584560871 13.910027504 -30.12399292 4.3185050345e-06
          -3.5557453632 -17.996103287 0.45318761468 3.9800152779 -3.3331985474 4.1722157107e-07
          0.74376255274 -10.254655838 8.6987427039e-07 -3.5437605381 -18.328886032 -0.38895663619
          1.8574527502 -25.318792343 3.0194273677e-06 -4.0610313416 -15.023355484 0.71379143
          22.180265427 -30.916601181 0.475805372 9.8372583389 -29.709980011 -0.60764217377
          -0.86908507347 -15.423061371 -0.6933915019 0 0 0
          3.8766653538 -4.3033494949 0.33925253153 -3.2659497261 -21.632074356 -0.51542961597
          3.9556546211 -4.2131910324 0.12480409443 9.8420524597 -29.786846161 -0.30306062102
          18.012130737 -30.474349976 0.41679620743 -0.84578824043 -15.675739288 -0.33213743567
          -3.2845005989 -21.577806473 -0.26756280661 2.8737120628 -2.3531017303 0.1829046011
          1.3734610081 -7.5904483795 -0.38247343898 5.1493878365 -25.363420486 0.5141493082
          -3.5344834328 -18.356403351 1.5408090803e-06 -1.4109218121 -12.47351265 0.58442568779
          -1.0097415447 -21.476303101 0.42996102571 9.8439655304 -29.812320709 4.1293865252e-06
          13.907215118 -30.096582413 0.35820397735 -0.80852788687 -15.734591484 1.2390951269e-06
          4.0394864082 -3.3146586418 -0.00056473433506 3.9268403053 -4.2764058113 5.1689823977e-07
          0.81335157156 -10.264566422 -0.15493664145 1.8578071594 -25.303430557 0.22347985208
          -3.2856543064 -21.588733673 2.1074185952e-06 -0.62743848562 -25.340101242 -0.44567027688
          0.67449092865 -12.58188343 0.16580452025 -0.62953066826 -25.327148438 -0.22371461987
          0.54166543484 -12.892321587 0.088374435902 22.166589737 -30.829023361 0.9525474906
          0 0 0 -3.5437588692 -18.328886032 0.38895973563
          3.1506206989 -7.4157142639 0.81334775686 5.9356694221 -29.486797333 -0.51624715328
          3.1881186962 -7.3836951256 0.31057140231 17.999538422 -30.387048721 0.83469319344
          2.7990708351 -2.3459544182 0.50332009792 5.9378237724 -29.549543381 -0.25636047125
          9.8420543671 -29.786846161 0.30306890607 -0.84578764439 -15.675739288 0.33213990927
          3.9556548595 -4.2131910324 -0.12480306625 -3.2844994068 -21.577806473 0.26756703854
          -0.62983679771 -25.332094193 2.8381741686e-06 0.4595926404 -12.900140762 1.1250884882e-06
          13.898802757 -30.012439728 0.71833366156 3.9406554699 -3.4267020226 -0.12332499027
          1.8608949184 -25.266220093 0.45833691955 3.1824374199 -7.4016628265 7.1470594776e-07
          0.92996650934 -10.024106979 -0.33337557316 5.9391098022 -29.571889877 3.9206433939e-06
          23.731079102 -35.129421234 -0.93246662617 0 0 0
          -3.5230395794 -18.373620987 0.81584882736 -0.62952923775 -25.327148438 0.22372032702
          0 0 0 19.373991013 -34.695877075 -0.81880801916
          -0.20439137518 -18.688323975 -0.65535694361 0.54166513681 -12.892321587 -0.088372178376
          3.1575267315 -1.4228086472 -0.51405084133 -2.7317311764 -21.90372467 -0.88357168436
          23.742219925 -35.213512421 -0.46555253863 9.8372612 -29.709978104 0.60765051842
          19.384506226 -34.779548645 -0.40880414844 3.328950882 -1.4712340832 -0.21584919095
          -0.86908382177 -15.423061371 0.6933940053 -0.145661816 -18.965181351 -0.32002606988
          3.8766658306 -4.3033494949 -0.33925151825 2.475266695 -29.361125946 -0.4591230154
          3.1881189346 -7.3836951256 -0.3105700016 -3.2659471035 -21.632074356 0.51543396711
          2.9006409645 -9.8038759232 0.72876805067 5.9378252029 -29.549541473 0.25636833906
          -2.7115445137 -21.901634216 -0.41325736046 2.8948144913 -9.8225345612 0.35537442565
          2.4785754681 -29.399097443 -0.22449439764 15.072961807 -34.326957703 -0.70684295893
          23.745130539 -35.241104126 5.5255095504e-06 3.8723950386 -2.7676596642 -0.14264504611
          0 0 0 15.080956459 -34.407444 -0.35236865282
          4.0144915581 -2.7357738018 -0.097359672189 19.387722015 -34.806800842 5.3537796703e-06
          -2.8739471436 -25.463058472 -0.54706704617 -0.11814296246 -19.027238846 1.5957185724e-06
          -2.6857094765 -21.932683945 2.0356412733e-06 0.53996342421 -15.51493454 0.047283925116
          3.3767347336 -1.5045061111 2.2951043377e-07 -2.8724462986 -25.413541794 -0.28113260865
          2.4798338413 -29.413986206 3.7009840526e-06 0.41701889038 -15.879114151 0.028778484091
          2.8948435783 -9.8270597458 9.3129688139e-07 -0.6274356842 -25.340101242 0.44567608833
          15.083307266 -34.433616638 5.1594984143e-06 0.67449069023 -12.58188343 -0.16580229998
          4.0802435875 -2.7344112396 3.7451872004e-07 10.81487751 -34.024879456 -0.60114079714
          23.742221832 -35.213512421 0.46556359529 -2.8718278408 -25.428123474 2.6605580388e-06
          4.2717146873 -4.1616458893 -0.082759894431 3.1506211758 -7.4157142639 -0.81334644556
          0.32523325086 -15.918840408 1.338866241e-06 5.93567276 -29.486795425 0.5162550807
          0 0 0 10.820466042 -34.098651886 -0.29968115687
          4.3796548843 -4.1555476189 -0.027898423374 19.384508133 -34.779548645 0.40881487727
          -0.14566127956 -18.965181351 0.32002928853 -2.7115428448 -21.901634216 0.41326144338
          3.328950882 -1.471233964 0.21584965289 2.478577137 -29.399097443 0.22450183332
          2.8948147297 -9.8225345612 -0.35537257791 15.080957413 -34.407444 0.35237899423
          10.822235107 -34.123218536 4.9419782044e-06 -0.19363684952 -29.37049675 -0.43763226271
          2.3675618172 -12.524126053 0.79538822174 4.4348649979 -4.1704597473 5.1370022902e-07
          4.0144920349 -2.7357735634 0.097360424697 2.3357155323 -12.623523712 0.3809530735
          -2.8724448681 -25.413541794 0.28113794327 -0.1823785603 -29.366325378 -0.22066052258
          0.41701877117 -15.879114151 -0.028775760904 6.738342762 -33.792797089 -0.51380294561
          23.731082916 -35.129421234 0.93247777224 0 0 0
          4.5318837166 -6.1211261749 0.077139526606 6.7419981956 -33.854137421 -0.25494146347
          19.373994827 -34.695877075 0.81881886721 4.6411409378 -6.0918345451 0.030008798465
          -0.20439016819 -18.688323975 0.65536022186 -0.18007190526 -29.374031067 3.4832296478e-06