<?xml version="1.0"?>
<VTKFile type="UnstructuredGrid" version="0.1" byte_order="LittleEndian" header_type="UInt32" compressor="vtkZLibDataCompressor">
  <UnstructuredGrid>
    <Piece NumberOfPoints="6405" NumberOfCells="4800">
      <PointData>
        <DataArray type="Float32" Name="DISPLACEMENT" NumberOfComponents="3" ComponentName0="X-DISPLACEMENT" ComponentName1="Y-DISPLACEMENT" ComponentName2="Z-DISPLACEMENT" format="ascii" RangeMin="0" RangeMax="301.89761903">
          0 0 0 0 0 0
          2.4802401066 -1.4715973139 -1.1304576397 0 0 0
          1.4946471453 -0.8334531188 -0.80256032944 0 0 0
          2.2778036594 -1.6611026525 -0.44420644641 1.3004175425 -0.99562960863 -0.32589277625
          0 0 0 4.4676866531 -2.954785347 -1.1377842426
          0 0 0 4.4100589752 -3.1617467403 -0.58201801777
          3.0159592628 -2.4654889107 -0.89588218927 0 0 0
          0 0 0 2.2875342369 -1.7167767286 -1.8994732898e-08
          0.90280461311 -0.51597684622 -0.50567209721 1.2935187817 -1.0219454765 -4.5147223737e-09
          2.9465157986 -2.6338045597 -0.4567489922 0.76174992323 -0.67346841097 -0.20419996977
          4.3592209816 -3.2171363831 -2.8049202072e-08 1.8834381104 -2.0611798763 -0.63936883211
          0 0 0 2.9057662487 -2.6850473881 -2.2452559811e-09
          1.7819932699 -2.2185440063 -0.32672533393 0 0 0
          6.1869521141 -4.9372701645 -1.0318861008 0 0 0
          0.75172650814 -0.69262838364 8.1597804069e-09 0 0 0
          0 0 0 2.2778036594 -1.6611026525 0.44420641661
          4.4154825211 -4.5062222481 -0.8715698719 6.2083554268 -5.0667405128 -0.52657520771
          0.14802774787 -0.35602334142 -0.16621692479 1.3004175425 -0.99562960863 0.32589277625
          4.4245958328 -4.6256723404 -0.44390040636 0.020503077656 -0.53605389595 -0.090200595558
          1.7469793558 -2.2600190639 2.2382511844e-08 4.4100589752 -3.1617467403 0.58201795816
          0 0 0 0 0 0
          0.48983243108 -1.8272212744 -0.38347491622 2.9604196548 -4.1842207909 -0.72225618362
          6.1880865097 -5.1136231422 -3.1350310792e-08 2.9465157986 -2.6338045597 0.4567489922
          2.9160377979 -4.2870607376 -0.3704726994 0.76174992323 -0.67346841097 0.20419999957
          4.4133176804 -4.6655249596 5.5808322408e-09 0.3742878139 -1.9812800884 -0.21176932752
          -0.0047544711269 -0.55796945095 2.0363099651e-08 0 0 0
          7.6801457405 -7.1093959808 -0.88933873177 0 0 0
          5.715338707 -6.7377490997 -0.8108971715 1.7819932699 -2.2185440063 0.32672539353
          7.7282571793 -7.1801967621 -0.45410993695 2.4802401066 -1.4715974331 1.1304575205
          0 0 0 0 0 0
          0.35268715024 -2.0217027664 4.5998646669e-08 2.9029576778 -4.3227148056 4.1562039144e-08
          -0.26446029544 -0.39242240787 0.11697027087 5.7556109428 -6.8063182831 -0.4094209373
          1.4946471453 -0.83345317841 0.80256032944 1.211826086 -3.889633894 -0.61844581366
          0 0 0 6.2083554268 -5.0667405128 0.52657514811
          -0.29366853833 -0.57389855385 0.025832016021 1.1479874849 -3.9665968418 -0.31211510301
          4.4245958328 -4.6256723404 0.44390040636 0.020503070205 -0.53605389595 0.090200632811
          4.0164060593 -6.4780745506 -0.74745941162 -0.35288274288 -1.5519319773 -0.087176576257
          7.7269926071 -7.2081480026 -2.8579366429e-08 4.46768713 -2.954785347 1.1377842426
          0 0 0 0 0 0
          4.0267224312 -6.5354323387 -0.37918296456 3.0159592628 -2.4654889107 0.89588218927
          5.7613511086 -6.8340172768 1.7602513225e-08 -0.44192668796 -1.7280443907 -0.094411946833
          0.90280467272 -0.51597684622 0.50567209721 -0.31477278471 -0.6188775897 1.9846897459e-08
          1.1503522396 -3.9992380142 7.7968230983e-08 2.9160377979 -4.2870607376 0.37047278881
          0.3742878139 -1.9812800884 0.21176941693 4.0282626152 -6.5658631325 6.3609796541e-08
          1.8834381104 -2.0611801147 0.63936889172 -0.36053135991 -1.7661589384 9.7865992643e-08
          2.3940861225 -6.2737045288 -0.75588983297 7.7282571793 -7.1801967621 0.45410987735
          6.1869521141 -4.9372706413 1.0318859816 0 0 0
          8.99335289 -9.3199090958 -0.78004181385 0 0 0
          0 0 0 0.96454775333 -4.0602045059 -1.038974762
          2.410148859 -6.3182873726 -0.34802153707 9.0423250198 -9.358587265 -0.39534860849
          6.9287347794 -8.9685649872 -0.73667347431 5.7556109428 -6.8063182831 0.4094209671
          0.60429829359 -1.1547615528 -0.67785555124 0 0 0
          4.4154825211 -4.5062222481 0.87156993151 0.14802776277 -0.35602337122 0.16621695459
          1.3005596399 -4.1921539307 -0.46583530307 -0.29366853833 -0.57389855385 -0.025831989944
          0.4038875401 -1.0546786785 -0.21547226608 1.1479874849 -3.9665968418 0.31211525202
          6.9753489494 -9.0119848251 -0.37101900578 4.0267224312 -6.5354323387 0.37918308377
          2.4112055302 -6.3413619995 1.1291199087e-07 9.0508422852 -9.375374794 -2.1566886943e-08
          1.2841303349 -2.9781656265 -1.2857505083 -0.44192692637 -1.7280442715 0.094411894679
          0 0 0 5.0822968483 -8.6563215256 -0.69379150867
          0.48983246088 -1.8272213936 0.38347500563 2.9604196548 -4.1842207909 0.72225624323
          1.444958806 -4.2990570068 1.81819658e-07 6.9866113663 -9.0308065414 3.1207282092e-08
          0.45299872756 -1.1402043104 6.3238582015e-07 1.1793221235 -2.8635363579 -0.55238473415
          5.1225299835 -8.7095327377 -0.35011526942 7.6801457405 -7.1093959808 0.88933867216
          0 0 0 2.0317008495 -6.4757456779 -0.46677336097
          5.715338707 -6.7377490997 0.8108971715 1.2119424343 -2.9292817116 9.7610768535e-07
          2.1022768021 -6.6123642921 -0.2499050051 5.1291923523 -8.7311286926 8.4495731301e-08
          -0.26446029544 -0.39242237806 -0.11697029322 2.410148859 -6.3182873726 0.34802174568
          3.5492703915 -8.35222435 -0.60855680704 9.0423250198 -9.358587265 0.39534857869
          1.3792681694 -5.6665220261 -1.3415546417 1.211826086 -3.8896341324 0.61844599247
          0 0 0 1.3005603552 -4.1921548843 0.4658356607
          3.5806934834 -8.4362926483 -0.30023941398 0.40388759971 -1.0546780825 0.21547335386
          1.5136088133 -5.776450634 -0.57704108953 6.9753489494 -9.0119848251 0.37101909518
          4.0164065361 -6.4780745506 0.74745953083 -0.3528829217 -1.5519318581 0.087176330388
          10.193770409 -11.527200699 -0.70688027143 0 0 0
          2.0805985928 -6.6102056503 1.8264684343e-07 8.0751066208 -11.188632011 -0.6725871563
          10.233090401 -11.554826736 -0.35582411289 0 0 0
          0.95623087883 -1.6007338762 -0.85782182217 8.1138286591 -11.223244667 -0.33733263612
          3.5772938728 -8.4521636963 1.4475776311e-07 0.74950683117 -1.6137293577 -0.38278049231
          1.1793227196 -2.8635351658 0.55238634348 1.5217494965 -5.9224495888 4.9764531695e-07
          5.1225299835 -8.7095327377 0.35011544824 6.1594457626 -10.864195824 -0.62558096647
          1.56513834 -3.7991299629 -1.1781693697 10.243904114 -11.566455841 -1.2803622162e-08
          0 0 0 1.5048180819 -3.9262421131 -0.61134594679
          6.1918225288 -10.912549973 -0.31379255652 8.125292778 -11.237185478 4.3858648269e-08
          0.76671767235 -1.6171517372 2.0757772745e-06 2.3940861225 -6.2737045288 0.75589007139
          2.14133811 -8.1537628174 -0.33427533507 8.99335289 -9.3199100494 0.78004175425
          0 0 0 1.2270885706 -6.7509331703 -0.34928971529
          2.1022768021 -6.6123642921 0.24990537763 0.96454888582 -4.0602054596 1.0389752388
          6.9287347794 -8.9685649872 0.73667353392 0.60429877043 -1.1547613144 0.6778563261
          1.1437236071 -6.831551075 -0.15802791715 2.1448121071 -8.2849788666 -0.20957185328
          3.5806934834 -8.4362926483 0.300239712 1.5136095285 -5.7764520645 0.57704210281
          6.2002029419 -10.928389549 1.0244998805e-07 1.5122982264 -3.9604320526 2.0293455236e-06
          4.4554781914 -10.57981205 -0.53490674496 2.226111412 -7.0306434631 -1.1234922409
          1.2841311693 -2.9781644344 1.2857515812 10.233090401 -11.554826736 0.35582408309
          5.0822968483 -8.6563215256 0.69379168749 0 0 0
          2.1502211094 -8.3007278442 2.2071785111e-07 1.1757019758 -6.8704919815 2.0060454631e-07
          4.4647011757 -10.647055626 -0.27383714914 8.1138286591 -11.223244667 0.33733272552
          2.2939794064 -7.2678136826 -0.56541913748 0.74950635433 -1.613727212 0.38278383017
          2.031701088 -6.4757456779 0.4667737484 4.4702525139 -10.664442062 1.6807881309e-07
          6.1918225288 -10.912549973 0.31379276514 1.5048173666 -3.9262387753 0.61134964228
          2.3225784302 -7.382191658 1.113202984e-06 11.317795753 -13.75001812 -0.66145515442
          0 0 0 11.345632553 -13.77540493 -0.33141514659
          3.5492703915 -8.35222435 0.60855710506 9.1493587494 -13.436202049 -0.62891483307
          1.3792697191 -5.6665244102 1.3415557146 1.5034487247 -8.6529188156 -0.52565300465
          0.70517146587 -1.8480594158 -0.66666424274 1.1437234879 -6.831551075 0.15802834928
          2.1448121071 -8.2849788666 0.20957228541 0 0 0
          9.1765422821 -13.466529846 -0.31381726265 1.4452012777 -8.6301202774 -0.22457180917
          0.55957520008 -1.9707753658 -0.30371072888 2.5557050705 -10.356264114 -0.43024277687
          2.0813035965 -10.037178993 -1.0377744436 10.193770409 -11.527200699 0.70688021183
          0 0 0 8.0751066208 -11.188632965 0.67258727551
          11.355051041 -13.785393715 -7.0521291029e-09 2.1475870609 -10.476142883 -0.44841268659
          2.5452313423 -10.431848526 -0.22636722028 0.95623070002 -1.600731492 0.85782361031
          7.1314883232 -13.174282074 -0.59042942524 1.1180112362 -4.2992968559 -0.81058251858
          0 0 0 4.4647011757 -10.647055626 0.27383747697
          2.2939801216 -7.2678136826 0.56542044878 9.1856689453 -13.47809124 5.122043234e-08
          1.4809421301 -8.683423996 2.9865321949e-07 7.1537461281 -13.208963394 -0.29349693656
          1.1409542561 -4.5250658989 -0.43754211068 0.57599067688 -1.9891015291 4.1031366891e-06
          6.1594457626 -10.864195824 0.62558120489 1.5651370287 -3.7991261482 1.1781718731
          2.5683181286 -10.453565598 2.3433112517e-07 2.1440415382 -10.648961067 -5.0275468766e-07
          2.14133811 -8.1537628174 0.33427578211 7.1610164642 -13.2212286 1.132995564e-07
          1.1706681252 -4.5900259018 3.9351953092e-06 1.2270886898 -6.7509336472 0.34929019213
          11.345632553 -13.77540493 0.33141511679 5.2578520775 -13.016385078 -0.54807448387
          0 0 0 1.4425483942 -7.7181067467 -0.67948490381
          5.2649731636 -13.044867516 -0.27532574534 9.1765422821 -13.466529846 0.31381735206
          0.55957448483 -1.9707690477 0.30371752381 1.4452013969 -8.6301202774 0.22457242012
          1.6113163233 -8.1924247742 -0.29675850272 4.4554781914 -10.57981205 0.53490710258
          1.817065835 -10.532837868 -0.64091849327 2.5452313423 -10.431848526 0.22636769712
          2.2261118889 -7.0306434631 1.1234931946 2.1475872993 -10.476143837 0.44841301441
          1.6681468487 -10.957064629 -0.89712232351 1.8458732367 -10.507038116 -0.26790192723
          5.2719240189 -13.061215401 1.7441180944e-07 7.1537461281 -13.208963394 0.29349717498
          1.1409529448 -4.5250601768 0.43754848838 1.8542580605 -11.076497078 -0.41425105929
          1.6760423183 -8.4051914215 -1.5163018929e-07 12.387989044 -15.999990463 -0.6348708868
          0 0 0 0.45218142867 -2.1199498177 -0.43400606513
          1.8547317982 -10.538574219 3.1893338814e-07 3.3856163025 -12.8920784 -0.57930803299
          10.152194977 -15.703604698 -0.59927541018 11.317795753 -13.75001812 0.66145515442
          0 0 0 0 0 0
          1.8905386925 -11.185912132 1.7402072672e-07 1.7952816486 -11.212047577 -0.25675615668
          12.405921936 -16.027311325 -0.31747153401 3.3950507641 -12.906280518 -0.26478552818
          10.17077446 -15.733911514 -0.29836085439 9.1493587494 -13.436202049 0.62891495228
          0.37982082367 -2.2747707367 -0.19609673321 1.503448844 -8.6529188156 0.52565360069
          0.7051718235 -1.8480513096 0.66666740179 1.7302201986 -11.439257622 -0.19054219127
          5.2649731636 -13.044868469 0.27532610297 1.6113134623 -8.1924228668 0.29675975442
          8.0020914078 -15.473496437 -0.55926042795 2.5557050705 -10.356265068 0.43024328351
          2.0813033581 -10.037186623 1.0377731323 0 0 0
          0.57413256168 -4.7400145531 -0.41816869378 12.413031578 -16.03730011 -7.4680848172e-09
          0.3901411593 -2.3208591938 6.7931373451e-06 3.4073972702 -12.92124176 2.4879906846e-07
          8.0220594406 -15.503522873 -0.27843630314 7.1314883232 -13.174282074 0.59042966366
          10.177031517 -15.744544983 5.3467271499e-08 1.1180104017 -4.299290657 0.81058681011
          1.7624750137 -11.526353836 -1.3095379359e-07 0.59050422907 -4.9717764854 -0.19798633456
          1.8458733559 -10.507038116 0.26790258288 1.8542581797 -11.076497078 0.41425132751
          0.85127562284 -10.907589912 -0.56732314825 8.0272531509 -15.513835907 1.1471324513e-07
          0.56165111065 -5.0546746254 6.3023089751e-06 0.88502836227 -10.91408062 -0.2951451838
          5.9754247665 -15.348128319 -0.52679204941 0 0 0
          0.7262211442 -8.0379037857 -0.12564267218 12.405921936 -16.027311325 0.31747150421
          0.37981373072 -2.2747578621 0.19610846043 3.3950507641 -12.906280518 0.26478603482
          5.9978904724 -15.372556686 -0.2629417479 5.2578520775 -13.016385078 0.5480748415
          10.17077446 -15.733911514 0.2983609736 2.4905200005 -13.103082657 -0.49816718698
          1.6128674746 -11.648294449 -0.61646866798 1.4425435066 -7.718105793 0.67948812246
          0.70048719645 -8.4715147018 -0.03871158883 1.7302205563 -11.439259529 0.19054178894
          2.5412778854 -13.143940926 -0.24898996949 1.6217550039 -11.778488159 -0.32423454523
          0.89028316736 -10.903038025 3.9854859324e-07 1.8170659542 -10.532837868 0.64091920853
          8.0220594406 -15.503522873 0.27843651175 1.6681457758 -10.957060814 0.89712363482
          6.0009179115 -15.383410454 1.8889146247e-07 0.59050095081 -4.9717617035 0.19799920917
          0.64419275522 -8.6583395004 -2.2058709419e-06 2.534519434 -13.141787529 3.5249209418e-07
          1.6472536325 -11.832636833 2.0378884358e-07 0.99738711119 -11.107731819 -0.082828350365
          4.2502622604 -15.274942398 -0.50968343019 12.387989044 -15.999991417 0.6348708272
          0 0 0 0.88502842188 -10.91408062 0.29514598846
          0.45217195153 -2.1199262142 0.43401297927 0.90698438883 -11.240760803 -0.081775918603
          3.3856165409 -12.8920784 0.57930856943 10.152194977 -15.703604698 0.59927552938
          4.275800705 -15.30079937 -0.2476733923 13.429217339 -18.285924911 -0.62317484617
          0 0 0 1.7952829599 -11.212049484 0.25675615668
          13.439100266 -18.318210602 -0.31097510457 0.31672921777 -2.2743637562 -0.24952572584
          11.119291306 -17.991336823 -0.57836097479 5.9978899956 -15.37255764 0.26294210553
          0 0 0 0.70048934221 -8.4715213776 0.038709368557
          11.130436897 -18.025766373 -0.28838223219 0.36132362485 -2.4548819065 -0.10025394708
          2.5412778854 -13.143940926 0.24899065495 1.6217556 -11.778490067 0.32423502207
          8.0020914078 -15.473496437 0.55926060677 0.92636024952 -11.306929588 6.1859003608e-07
          4.2761187553 -15.30748558 2.5300670359e-07 0.57413601875 -4.7399935722 0.41817307472
          1.1319121122 -13.175255775 -0.54807972908 0.5612180829 -5.1405720711 -0.11893107742
          8.8328914642 -17.741003036 -0.52924966812 1.1923072338 -13.8726511 -0.65094006062
          13.444028854 -18.329019547 -1.5842342549e-08 0 0 0
          1.1438533068 -13.166698456 -0.26766678691 11.134415627 -18.036911011 4.7400011027e-08
          0.41818597913 -2.5178554058 7.9100791481e-06 8.848906517 -17.775964737 -0.2628711164
          0.69788902998 -5.350607872 -0.034133523703 1.2530132532 -14.160113335 -0.36499205232
          0.85127568245 -10.907589912 0.56732398272 1.1645443439 -13.177083969 3.8300987626e-07
          0.84218472242 -12.370652199 -0.4342071712 0.90698474646 -11.240762711 0.081777133048
          2.7227318287 -15.239500046 -0.39745390415 8.8531551361 -17.785570145 1.1327291105e-07
          5.9754247665 -15.348129272 0.52679240704 4.275800705 -15.30079937 0.24767389894
          1.3167437315 -14.286517143 3.8661332269e-07 0.75477397442 -5.4259796143 9.9872613646e-06
          0.72622525692 -8.0379180908 0.12565153837 13.439100266 -18.318210602 0.31097507477
          6.6344852448 -17.598192215 -0.46956953406 0.89896738529 -12.683697701 -0.22925972939
          0.62595635653 -7.8678479195 0.17087431252 2.7357516289 -15.278897285 -0.22149081528
          2.4905200005 -13.103083611 0.49816778302 1.6128702164 -11.648299217 0.61646878719
          0 0 0 0.71723198891 -8.0709428787 0.08807567507
          11.130436897 -18.025766373 0.2883823216 0.36131325364 -2.4548714161 0.10027120262
          6.6540980339 -17.627315521 -0.23770441115 0.96376895905 -12.827870369 7.1875007279e-07
          2.746781826 -15.284402847 2.8709260391e-07 1.1438535452 -13.166698456 0.26766753197
          6.6566662788 -17.634548187 1.5073140958e-07 0.74855643511 -8.1733884811 -2.2846986667e-06
          8.848906517 -17.775964737 0.26287132502 0.69786471128 -5.3505711555 0.034153938293
          1.2530132532 -14.160113335 0.36499285698 0.99738711119 -11.10773468 0.08282956481
          4.2502622604 -15.274942398 0.50968390703 4.8171682358 -17.57242012 -0.43235337734
          13.429217339 -18.285924911 0.62317484617 0 0 0
          0.65761822462 -10.75784874 0.16701829433 0.31669062376 -2.2743368149 0.24953009188
          11.119291306 -17.991336823 0.57836103439 0.8989674449 -12.683698654 0.2292611897
          2.7357516289 -15.278897285 0.22149141133 4.8355231285 -17.591001511 -0.22287832201
          0.50936973095 -13.747904778 -0.74856293201 0.60611909628 -11.087914467 0.037905015051
          0.7172114253 -8.070971489 -0.088084742427 6.6540975571 -17.627315521 0.23770472407
          0.5895190239 -13.7161026 -0.35467079282 1.7789092064 -15.654366493 -0.5675932765
          1.0123298168 -14.062522888 -0.40623283386 14.467132568 -20.630681992 -0.62181842327
          0 0 0 12.072577477 -20.332626343 -0.56972634792
          1.1319122314 -13.175255775 0.54808050394 0.56112539768 -5.1404824257 0.1189481765
          8.8328914642 -17.741003036 0.52924984694 1.0894240141 -14.209452629 -0.24629074335
          1.8087904453 -15.626414299 -0.25240686536 1.192307353 -13.872653008 0.65094071627
          14.470661163 -20.668205261 -0.31008061767 0 0 0
          0.58878028393 -11.246435165 -7.6007597727e-07 4.8383226395 -17.599962234 2.0621547492e-07
          -0.10237755626 -2.34248209 0.064284548163 12.076991081 -20.371669769 -0.28380227089
          -0.12118961662 -2.4974205494 0.035911682993 0.61681133509 -13.738817215 4.0713823068e-07
          9.6841125488 -20.069389343 -0.51113379002 1.1669639349 -14.28741169 6.9303723649e-07
          1.8272817135 -15.65043354 3.1236538689e-07 14.473521233 -20.680448532 -3.3490817231e-08
          0 0 0 -0.15593586862 -5.1472377777 0.17988413572
          9.6914358139 -20.108234406 -0.25496312976 12.07930851 -20.383766174 3.4552602557e-08
          0.84218430519 -12.37065506 0.4342083931 2.7227315903 -15.239500046 0.3974545598
          -0.17319193482 -2.5607118607 1.105242518e-06 -0.22817248106 -5.3058791161 0.11907790601
          6.6344847679 -17.598192215 0.46956986189 0.62589114904 -7.8679308891 -0.1708714366
          0.51237046719 -12.832250595 -0.11806464195 3.1332807541 -17.570766449 -0.45577958226
          0.6061142087 -11.087917328 -0.03790512681 4.8355226517 -17.591003418 0.22287873924
          0.59076172113 -13.133376122 -0.04417880252 3.1501915455 -17.578414917 -0.21884527802
          0.58951920271 -13.7161026 0.35467162728 9.6944913864 -20.119632721 1.0025350861e-07
          -0.33048519492 -5.3540716171 -2.3219270417e-07 7.2222151756 -19.861139297 -0.45536541939
          1.0894241333 -14.209453583 0.24629205465 1.8087905645 -15.626414299 0.25240749121
          14.470661163 -20.668205261 0.31008055806 0 0 0
          0.087712854147 -7.5213484764 0.2043466568 7.2334356308 -19.894712448 -0.22606191039
          12.076991081 -20.371671677 0.2838023603 -0.01039902959 -7.6873350143 0.13631217182
          0.59850931168 -13.2348423 1.1343621509e-06 3.165194273 -17.589744568 2.6426269528e-07
          -0.1211925447 -2.4974114895 -0.035913422704 9.6914358139 -20.108234406 0.25496330857
          7.2392191887 -19.904356003 1.5426856237e-07 -0.14669279754 -7.7780251503 4.8263736971e-06
          4.8171682358 -17.57242012 0.43235382438 0.73731321096 -15.960595131 -0.60620474815
          -0.22817493975 -5.3058333397 -0.11907558888 0.65760630369 -10.757849693 -0.16701215506
          0.97438794374 -15.239643097 -0.67293834686 0.80237179995 -15.95134449 -0.31217056513
          0.50936996937 -13.747905731 0.74856376648 1.1272675991 -15.640611649 -0.338131845
          0.59076184034 -13.133377075 0.044180892408 3.1501917839 -17.578414917 0.21884582937
          1.7789093256 -15.654366493 0.56759393215 1.0123301744 -14.062523842 0.40623399615
          0.5835980773 -10.268915176 0.38840946555 5.2446837425 -19.903436661 -0.42029342055
          14.467132568 -20.630681992 0.62181830406 0 0 0
          12.072577477 -20.332626343 0.56972640753 0.54890972376 -10.566283226 0.23974172771
          0.82871860266 -15.962648392 4.1361670355e-07 0.43156787753 -14.310146332 -0.35601389408
          2.0815563202 -17.802112579 -0.49634364247 5.2609019279 -19.91229248 -0.21169608831
          -0.10235708952 -2.3424594402 -0.064282439649 1.2095496655 -15.821958542 6.6884376793e-07
          7.2334361076 -19.894712448 0.22606222332 -0.010392937809 -7.6873617172 -0.13629837334
          2.1149303913 -17.794750214 -0.23611876369 0.51510936022 -14.506258011 -0.17026291788
          9.6841125488 -20.069389343 0.51113396883 0.50140041113 -10.713030815 2.4692578791e-06
          5.2697234154 -19.919210434 1.6463795305e-07 -0.1558829248 -5.1471333504 -0.17988425493
          2.1187524796 -17.800718307 3.413823606e-07 15.509440422 -23.056972504 -0.62605810165
          0 0 0 0.55559504032 -14.611495018 9.5842506198e-07
          15.509047508 -23.09828186 -0.31226703525 0 0 0
          0.80237197876 -15.95134449 0.31217136979 13.027404785 -22.757102966 -0.56971383095
          0.5123705864 -12.832252502 0.11806649715 3.1332809925 -17.570766449 0.45578020811
          -0.19677177072 -2.3474206924 0.14115278423 1.1272675991 -15.640612602 0.3381331861
          13.027331352 -22.798891068 -0.2839795351 -0.071675397456 -2.5001521111 0.05173214525
          7.2222156525 -19.861139297 0.45536574721 15.51026535 -23.111738205 -6.2556146929e-08
          0.5489115119 -10.566286087 -0.23973657191 10.522871971 -22.490776062 -0.51125776768
          -0.21490336955 -4.8038492203 0.36214587092 5.2609019279 -19.91229248 0.21169646084
          0 0 0 3.7517194748 -19.943044662 -0.43907344341
          0.89342594147 -12.511271477 0.43856975436 0.087773635983 -7.5214099884 -0.20434495807
          -0.046334497631 -4.7489471436 0.19009411335 10.524664879 -22.531507492 -0.25471615791
          13.028087616 -22.812221527 1.4111680713e-08 2.1149303913 -17.794752121 0.23611944914
          0.74196910858 -12.810528755 0.22069297731 3.7686748505 -19.943716049 -0.21335507929
          0.51510936022 -14.506258965 0.17026478052 -0.021040553227 -2.6049165726 -4.1409061851e-06
          0.4341185689 -16.769319534 -0.68899309635 10.526402473 -22.544630051 9.2794699924e-08
          0.73731344938 -15.960595131 0.60620552301 0.054063871503 -4.634829998 -2.149104148e-06
          0.69880414009 -12.916758537 1.6308143813e-06 0.63155424595 -16.933652878 -0.33544194698
          3.7731976509 -19.946735382 2.378524897e-07 0.97438800335 -15.239644051 0.67293965816
          15.509047508 -23.09828186 0.31226691604 8.0181999207 -22.248773575 -0.46052110195
          0.54242575169 -15.865870476 -0.39480549097 0 0 0
          -0.069312430918 -7.0366845131 0.4274058938 1.0979963541 -18.164087296 -0.54974138737
          0.13930775225 -7.1539568901 0.28647470474 8.0214748383 -22.286930084 -0.22660964727
          13.027331352 -22.798891068 0.2839795351 0.69558280706 -16.182336807 -0.15634153783
          1.1547166109 -18.15958786 -0.2687445581 -0.071665972471 -2.5001404285 -0.051737964153
          0.58360546827 -10.268917084 -0.38840845227 5.2446837425 -19.903436661 0.42029392719
          0.72965282202 -17.037408829 6.1151911268e-07 0.43156790733 -14.310147285 0.35601565242
          2.0815563202 -17.802112579 0.49634423852 8.0235996246 -22.299222946 1.7819093046e-07
          10.524664879 -22.531507492 0.25471633673 0.73371201754 -16.305969238 9.0341694658e-07
          -0.0463170968 -4.7489080429 -0.190099895 0.25397029519 -7.1641411781 5.6252883951e-06
          0.74196863174 -12.810528755 -0.22068974376 3.7686748505 -19.943716049 0.21335561574
          1.1805801392 -18.174949646 4.5353468181e-07 2.4134743214 -19.974132538 -0.42394599319
          1.0010051727 -14.038984299 0.50988048315 2.4322147369 -19.975009918 -0.2150298804
          0.89755636454 -14.201252937 0.27750402689 15.509439468 -23.056972504 0.62605792284
          0 0 0 0.63155424595 -16.933654785 0.33544313908
          0.43420919776 -9.5452461243 0.72545319796 5.698597908 -22.046308517 -0.41686972976
          0.3759740293 -9.6864175797 0.3829189837 13.027404785 -22.757102966 0.56971383095
          -0.19675645232 -2.3473978043 -0.14115196466 5.7127923965 -22.057245255 -0.20675174892
          8.0214748383 -22.286931992 0.2266100049 0.69558286667 -16.182336807 0.15634332597
          0.13932080567 -7.1539640427 -0.28646618128 1.1547167301 -18.15958786 0.26874548197
          2.4351990223 -19.975393295 3.4117914538e-07 0.86338728666 -14.253093719 1.5214660607e-06
          10.522871971 -22.490777969 0.51125794649 -0.21488198638 -4.8037824631 -0.36214289069
          3.7517194748 -19.943044662 0.43907412887 0.35471114516 -9.7415933609 1.8149140715e-06
          0.89342480898 -12.51127243 -0.43856659532 5.7226567268 -22.062942505 1.7304122935e-07
          16.559469223 -25.576152802 -0.63164365292 0 0 0
          0.43411874771 -16.769319534 0.68899428844 2.4322147369 -19.975009918 0.21503059566
          0 0 0 13.981872559 -25.274518967 -0.57247447968
          0.91722798347 -17.524929047 -0.25121575594 0.89755600691 -14.201252937 -0.27750101686
          -0.21286445856 -2.1824424267 0.19698724151 0.42417564988 -18.645343781 -0.6008040309
          16.557523727 -25.619728088 -0.31525275111 8.0181999207 -22.248773575 0.46052139997
          13.980081558 -25.317918777 -0.28614658117 -0.049189522862 -2.3825747967 0.066546574235
          0.54242557287 -15.865871429 0.3948071599 0.95049113035 -17.72177887 -0.097235135734
          -0.069297678769 -7.0367031097 -0.42740884423 4.1914510727 -22.047370911 -0.40690112114
          0.3759753406 -9.6864204407 -0.38291579485 1.0979964733 -18.164087296 0.54974228144
          0.40211513638 -11.847887039 0.6086692214 5.7127928734 -22.057245255 0.20675216615
          0.5066754818 -18.671833038 -0.28380176425 0.34589785337 -11.997770309 0.31123057008
          4.2048945427 -22.053382874 -0.20466043055 11.391688347 -24.99549675 -0.51472562551
          16.557672501 -25.633918762 -1.0595500299e-07 -0.21033832431 -4.2802529335 0.41773843765
          0 0 0 11.390872002 -25.039037704 -0.25635612011
          0.022673174739 -4.1067700386 0.22636090219 13.979996681 -25.332155228 -1.9592343747e-08
          1.3950606585 -20.246725082 -0.48158442974 0.94393593073 -17.78547287 9.3731904371e-07
          0.53466647863 -18.69389534 6.2581210614e-07 0.86829829216 -15.84732914 0.43386691809
          0.02121011354 -2.5059101582 -4.5820570449e-06 1.4344505072 -20.239891052 -0.22173929214
          4.2085361481 -22.056987762 3.095776151e-07 0.78937906027 -16.010793686 0.23211739957
          0.32770639658 -12.048295021 1.8220913489e-06 2.4134743214 -19.974132538 0.42394685745
          11.391265869 -25.052593231 7.2724084532e-08 1.0010040998 -14.038984299 -0.50987756252
          0.14045614004 -3.9558320045 -1.4058799707e-06 8.7748184204 -24.737695694 -0.44967889786
          16.557523727 -25.619728088 0.3152525425 1.4364746809 -20.246461868 5.1257717359e-07
          -0.0051885554567 -6.450586319 0.6283864975 0.43421253562 -9.5452528 -0.72545075417
          0.76165652275 -16.075054169 1.3191103108e-06 5.6985983849 -22.046310425 0.41687035561
          0 0 0 8.7754087448 -24.780485153 -0.22648699582
          0.072977639735 -6.5243463516 0.34024962783 13.980081558 -25.317918777 0.28614655137
          0.95049101114 -17.72177887 0.097236923873 0.50667542219 -18.671833038 0.28380304575
          -0.04918140918 -2.3825671673 -0.066553063691 4.2048950195 -22.053382874 0.2046610713
          0.34589725733 -11.997770309 -0.31122690439 11.390872002 -25.039037704 0.25635626912
          8.7755727768 -24.793476105 1.6278825399e-07 2.8473043442 -22.110197067 -0.40552473068
          0.42699581385 -13.51641655 0.62258481979 0.10062288493 -6.5549311638 3.9740634747e-06
          0.02267818898 -4.1067509651 -0.22636221349 0.35499316454 -13.595547676 0.31538370252
          1.434450388 -20.239891052 0.22174032032 2.8593356609 -22.118913651 -0.19851472974
          0.78937876225 -16.010793686 -0.23211483657 6.5305786133 -24.400590897 -0.42546868324
          16.559469223 -25.576152802 0.6316434741 0 0 0
          -0.08620955795 -8.6598892212 0.8495849371 6.5362272263 -24.416484833 -0.20664094388
          13.981872559 -25.274518967 0.57247442007 -0.12235274911 -8.705950737 0.39678609371
          0.91722750664 -17.524930954 0.25121748447 2.86327672 -22.122142792 4.8193027169e-07
          -0.21285548806 -2.1824288368 -0.19698654115 0.42417553067 -18.645343781 0.60080528259