<?xml version="1.0"?>
<VTKFile type="UnstructuredGrid" version="0.1" byte_order="LittleEndian" header_type="UInt32" compressor="vtkZLibDataCompressor">
  <UnstructuredGrid>
    <Piece NumberOfPoints="6405" NumberOfCells="4800">
      <PointData>
        <DataArray type="Float32" Name="DISPLACEMENT" NumberOfComponents="3" ComponentName0="X-DISPLACEMENT" ComponentName1="Y-DISPLACEMENT" ComponentName2="Z-DISPLACEMENT" format="ascii" RangeMin="0" RangeMax="313.21441924">
          0 0 0 0 0 0
          2.5735836029 -1.5030853748 -1.17643857 0 0 0
          1.5202431679 -0.84209567308 -0.81435781717 0 0 0
          2.3659896851 -1.7129392624 -0.4622195363 1.3229217529 -1.0236235857 -0.33057630062
          0 0 0 4.6573534012 -3.0837554932 -1.1866803169
          0 0 0 4.5989537239 -3.3157670498 -0.60494244099
          3.0690317154 -2.5733921528 -0.90851145983 0 0 0
          0 0 0 2.377808094 -1.773552537 -5.3699828584e-08
          0.86193495989 -0.52625131607 -0.483946383 1.3159016371 -1.0536000729 -1.7709020028e-08
          2.9984366894 -2.7653417587 -0.462556988 0.72669380903 -0.70321434736 -0.19484701753
          4.5467481613 -3.3777399063 -9.4134954054e-08 1.8035464287 -2.1671278477 -0.61223077774
          0 0 0 2.9565289021 -2.8229146004 -2.8291120557e-08
          1.7013975382 -2.3499672413 -0.3124987483 0 0 0
          6.4654774666 -5.2518262863 -1.0717856884 0 0 0
          0.71624934673 -0.72625088692 1.5959171762e-08 0 0 0
          0 0 0 2.3659896851 -1.7129393816 0.4622194469
          4.5022988319 -4.7981886864 -0.88177371025 6.4878072739 -5.4001665115 -0.54494416714
          0.041302904487 -0.39321899414 -0.11109368503 1.3229217529 -1.0236237049 0.33057627082
          4.5098662376 -4.9358024597 -0.44887730479 -0.078485451639 -0.59372210503 -0.067410156131
          1.6651285887 -2.3982288837 3.6779958634e-08 4.5989537239 -3.3157670498 0.60494226217
          0 0 0 0 0 0
          0.27880215645 -1.9502687454 -0.31761482358 2.8547222614 -4.4536914825 -0.7024627924
          6.465007782 -5.451944828 -1.3025578482e-07 2.9984366894 -2.7653419971 0.4625569284
          2.7976467609 -4.5766916275 -0.35896971822 0.72669380903 -0.70321440697 0.19484704733
          4.496805191 -4.9801597595 -3.2855872689e-08 0.16325908899 -2.1333756447 -0.17797528207
          -0.10659497976 -0.62118214369 4.9243055855e-08 0 0 0
          8.0219230652 -7.6769661903 -0.91324305534 0 0 0
          5.8351082802 -7.2941112518 -0.822945714 1.7013976574 -2.3499672413 0.31249883771
          8.0711898804 -7.7546262741 -0.46539467573 2.5735838413 -1.503085494 1.1764384508
          0 0 0 0 0 0
          0.13921932876 -2.1817889214 9.9857089708e-08 2.7809596062 -4.6159420013 6.2822209657e-08
          -0.33930513263 -0.44041770697 0.19383522868 5.8721737862 -7.3680434227 -0.41523423791
          1.5202431679 -0.84209579229 0.81435775757 0.89461451769 -4.1754455566 -0.54696208239
          0 0 0 6.4878072739 -5.4001665115 0.54494392872
          -0.32930138707 -0.63685470819 0.061821948737 0.81459641457 -4.2833075523 -0.28173983097
          4.5098662376 -4.9358024597 0.44887724519 -0.078485481441 -0.59372216463 0.067410252988
          3.9327671528 -7.0153808594 -0.74686563015 -0.63052928448 -1.5804772377 0.22445398569
          8.0670061111 -7.7840147018 -1.5864667091e-07 4.6573534012 -3.08375597 1.1866801977
          0 0 0 0 0 0
          3.9238498211 -7.0722231865 -0.37943691015 3.0690319538 -2.5733923912 0.90851140022
          5.8766922951 -7.3959989548 -3.2127491778e-08 -0.67387348413 -1.8641256094 0.044451549649
          0.86193501949 -0.52625143528 0.4839464128 -0.37716731429 -0.69804179668 3.5592695014e-08
          0.81267237663 -4.3192272186 1.5921790464e-07 2.7976467609 -4.5766916275 0.35896983743
          0.16325905919 -2.1333756447 0.17797547579 3.9228298664 -7.0995674133 9.3359552977e-08
          1.8035464287 -2.1671280861 0.61223083735 -0.67976081371 -1.9029616117 5.2776218951e-08
          1.9319455624 -6.7836809158 -0.74725407362 8.0711898804 -7.7546262741 0.46539437771
          6.4654779434 -5.2518262863 1.0717853308 0 0 0
          9.3579139709 -10.16159153 -0.78869861364 0 0 0
          0 0 0 1.093904376 -4.9028630257 -1.0061179399
          1.9123655558 -6.8104543686 -0.35684809089 9.408372879 -10.194851875 -0.40043655038
          7.0659079552 -9.8165407181 -0.75545710325 5.8721737862 -7.3680438995 0.4152341485
          0.10901048034 -0.71300172806 -0.12909094989 0 0 0
          4.5022988319 -4.7981891632 0.88177365065 0.041302897036 -0.39321911335 0.11109377444
          1.1750872135 -4.8091254234 -0.3950521946 -0.32930141687 -0.6368547678 -0.061821877956
          0.034979693592 -0.64850467443 0.0048818448558 0.81459641457 -4.2833075523 0.28174012899
          7.1117072105 -9.8520536423 -0.37934416533 3.9238498211 -7.0722236633 0.37943711877
          1.9173001051 -6.8323144913 2.2214042872e-07 9.4153060913 -10.210256577 -1.79141594e-07
          0.94467526674 -2.8832287788 -1.9527732134 -0.67387348413 -1.8641257286 -0.044451363385
          0 0 0 5.0110740662 -9.5420389175 -0.72901254892
          0.27880215645 -1.9502689838 0.3176150322 2.8547222614 -4.4536919594 0.70246291161
          1.1903297901 -4.8643527031 3.0288236985e-07 7.1228165627 -9.8681182861 -2.7283315163e-08
          0.046732347459 -0.69151389599 -3.7803647501e-07 1.0864292383 -2.3170745373 -0.60189110041
          5.0414423943 -9.5731248856 -0.36848691106 8.0219230652 -7.6769666672 0.91324275732
          0 0 0 1.6146738529 -7.1420693398 -0.70526611805
          5.8351082802 -7.2941117287 0.82294565439 1.1795892715 -2.4125332832 1.3518166497e-07
          1.7079955339 -7.1897754669 -0.34407755733 5.0486922264 -9.5914087296 1.2463799237e-07
          -0.33930513263 -0.44041776657 -0.19383516908 1.9123654366 -6.8104548454 0.35684853792
          3.1391971111 -9.2753534317 -0.73070579767 9.408372879 -10.194851875 0.40043619275
          1.5964816809 -7.2807998657 -0.87330085039 0.89461451769 -4.1754460335 0.54696238041
          0 0 0 1.1750872135 -4.8091259003 0.39505279064
          3.1731905937 -9.3084697723 -0.35058194399 0.034979540855 -0.64850509167 -0.0048824436963
          1.7918795347 -7.442234993 -0.43143618107 7.1117072105 -9.8520536423 0.37934410572
          3.9327671528 -7.0153813362 0.74686586857 -0.63052928448 -1.5804773569 -0.22445383668
          10.551543236 -12.607824326 -0.70763450861 0 0 0
          1.7049189806 -7.1970186234 3.9944467289e-07 8.2196416855 -12.277235031 -0.68943423033
          10.593357086 -12.625310898 -0.35702458024 0 0 0
          1.3560570478 -1.6766855717 -1.5532217026 8.2615566254 -12.300244331 -0.34566819668
          3.1744587421 -9.3204126358 2.8461352031e-07 1.2954921722 -1.3165422678 -0.5071927309
          1.0864294767 -2.3170747757 0.60189139843 1.8483895063 -7.5952453613 2.3968132723e-07
          5.0414423943 -9.5731248856 0.36848717928 6.0799059868 -11.974568367 -0.66664242744
          2.0436015129 -5.4234867096 -0.37567666173 10.604529381 -12.634083748 -1.9411666585e-07
          0 0 0 1.8170694113 -5.8893742561 -0.16062405705
          6.1216726303 -12.006472588 -0.33385902643 8.2735958099 -12.311040878 -2.0886689711e-08
          1.1721595526 -1.3112463951 -6.2195290411e-06 1.9319455624 -6.7836813927 0.74725455046
          1.9172962904 -9.1298007965 -0.51287662983 9.3579139709 -10.16159153 0.78869825602
          0 0 0 0.77739948034 -7.4686098099 -0.53292524815
          1.7079956532 -7.1897759438 0.34407839179 1.0939044952 -4.9028635025 1.006118536
          7.0659079552 -9.8165416718 0.75545704365 0.10901036859 -0.71300131083 0.12909030914
          0.79222178459 -7.55219841 -0.27696684003 1.9665474892 -9.2167539597 -0.28455641866
          3.1731905937 -9.3084697723 0.35058251023 1.7918800116 -7.4422364235 0.43143677711
          6.1311383247 -12.018719673 1.5528966912e-07 1.7254652977 -5.6049828529 -8.7712760433e-06
          4.2491321564 -11.704415321 -0.60782343149 1.079595089 -7.3023433685 -0.6386963129
          0.94467544556 -2.8832275867 1.9527732134 10.593357086 -12.625311852 0.35702419281
          5.0110740662 -9.5420389175 0.72901278734 0 0 0
          1.973669529 -9.2234420776 4.8123115448e-07 0.81242865324 -7.5675835609 5.8936478808e-07
          4.2852869034 -11.754491806 -0.30382212996 8.2615566254 -12.300245285 0.34566816688
          0.91891986132 -7.2832565308 -0.34647205472 1.2954936028 -1.3165451288 0.50718134642
          1.6146739721 -7.1420698166 0.70526701212 4.2898697853 -11.763866425 3.4640356716e-07
          6.1216726303 -12.006473541 0.33385932446 1.8170681 -5.8893771172 0.16060757637
          0.96042466164 -7.3323459625 5.3354739293e-07 11.669124603 -15.022616386 -0.66087955236
          0 0 0 11.699250221 -15.040149689 -0.3313074708
          3.1391973495 -9.2753534317 0.73070639372 9.3070936203 -14.703956604 -0.6382881999
          1.5964826345 -7.2808017731 0.87330114841 1.0838000774 -9.5482625961 -0.54678714275
          1.3138993979 -2.4977202415 -1.1541744471 0.7922219038 -7.5521988869 0.27696803212
          1.9665476084 -9.2167539597 0.28455737233 0 0 0
          9.338312149 -14.727238655 -0.31871429086 1.0644757748 -9.5670938492 -0.25417676568
          1.2466244698 -2.8646187782 -0.093113586307 2.4358994961 -11.509770393 -0.46734580398
          1.1827390194 -10.652889252 -1.3175690174 10.551543236 -12.607825279 0.70763409138
          0 0 0 8.2196416855 -12.277235985 0.68943417072
          11.710017204 -15.047543526 -2.0775965481e-07 1.3046777248 -10.825704575 -0.58458614349
          2.4540958405 -11.579403877 -0.25537443161 1.3560571671 -1.6766809225 1.5532102585
          7.1021428108 -14.415655136 -0.60432767868 3.6798307896 -5.4059314728 0.98441618681
          0 0 0 4.2852873802 -11.75449276 0.30382281542
          0.91892021894 -7.2832570076 0.34647291899 9.3484258652 -14.736134529 -1.7576006428e-08
          1.0905203819 -9.6017866135 6.8807310072e-07 7.1342363358 -14.446645737 -0.30075260997
          3.4711508751 -5.2582011223 0.53456747532 1.0927784443 -2.6541109085 -3.1016676076e-05
          6.0799059868 -11.974569321 0.66664272547 2.0436086655 -5.4234719276 0.37565857172
          2.4714138508 -11.591775894 5.4812301187e-07 1.327490449 -10.91812706 3.9629154003e-07
          1.9172964096 -9.1298017502 0.5128775835 7.1430683136 -14.455454826 1.7809814779e-07
          3.4462735653 -5.1544756889 -2.7499871067e-05 0.77739965916 -7.4686107635 0.53292649984
          11.699250221 -15.040149689 0.33130705357 5.0948863029 -14.205308914 -0.54454940557
          0 0 0 3.3218460083 -9.3058319092 0.40834838152
          5.1168775558 -14.238398552 -0.27623665333 9.338312149 -14.727238655 0.31871423125
          1.246632576 -2.8646392822 0.093053855002 1.064475894 -9.5670948029 0.25417816639
          3.0558159351 -9.5531320572 0.17304255068 4.2491321564 -11.704416275 0.60782408714
          1.3843773603 -11.693634033 -0.6086370945 2.4540958405 -11.579404831 0.25537550449
          1.0795958042 -7.3023443222 0.63869667053 1.3046779633 -10.825705528 0.58458673954
          0.37416937947 -10.40322876 -0.79489678144 1.4024636745 -11.692375183 -0.27580469847
          5.1247386932 -14.248953819 3.7945909526e-07 7.1342363358 -14.446645737 0.30075293779
          3.4711587429 -5.2582035065 -0.53462302685 0.43604692817 -10.369680405 -0.36141163111
          3.1255345345 -9.5059452057 -1.1205658666e-05 12.743833542 -17.444452286 -0.63586556911
          0 0 0 1.9286905527 -3.4172682762 0.66654801369
          1.4198645353 -11.719724655 7.2945880447e-07 3.0617899895 -14.070649147 -0.52640485764
          10.335018158 -17.139438629 -0.60489499569 11.669124603 -15.02261734 0.66087913513
          0 0 0 0 0 0
          0.43901702762 -10.396357536 8.3943928075e-07 2.0039284229 -11.842028618 -0.61389023066
          12.763004303 -17.467092514 -0.31748750806 3.0749969482 -14.095838547 -0.25869297981
          10.355132103 -17.165758133 -0.30098295212 9.3070936203 -14.703957558 0.6382881999
          2.0998864174 -3.1719603539 0.28490975499 1.0838003159 -9.5482635498 0.54678851366
          1.3138867617 -2.4977109432 1.1541296244 1.960431695 -12.207310677 -0.36198332906
          5.1168775558 -14.238398552 0.27623739839 3.055819273 -9.5531339645 -0.17306268215
          8.0190696716 -16.888849258 -0.56668055058 2.4358994961 -11.509770393 0.46734687686
          1.1827397346 -10.652889252 1.3175688982 0 0 0
          1.5860483646 -4.5809779167 0.93236142397 12.771154404 -17.475204468 -2.239545438e-07
          2.1501429081 -3.1627390385 -8.5500425484e-05 3.0926830769 -14.109208107 5.7834614609e-07
          8.040760994 -16.916437149 -0.28034585714 7.1021428108 -14.41565609 0.60432803631
          10.36222744 -17.174554825 -1.7176585487e-08 3.6798582077 -5.4059238434 -0.98447138071
          1.9780554771 -12.346977234 -1.0148744423e-06 1.4779388905 -4.4226055145 0.52250915766
          1.4024637938 -11.692375183 0.27580615878 0.43604695797 -10.369680405 0.36141332984
          0.37998452783 -12.147760391 -0.62665480375 8.0472478867 -16.923940659 1.8945861768e-07
          1.43306005 -4.3296976089 -5.4359628848e-05 0.38445782661 -12.125555038 -0.32184094191
          5.8429279327 -16.755346298 -0.52432155609 0 0 0
          1.4141635895 -8.9247350693 1.035132885 12.763004303 -17.467094421 0.31748706102
          2.0999047756 -3.1719863415 -0.28507944942 3.0749969482 -14.095838547 0.2586941421
          5.8605370522 -16.77287674 -0.26315104961 5.0948863029 -14.205309868 0.54455018044
          10.355132103 -17.16576004 0.30098292232 2.0170276165 -14.330353737 -0.59316593409
          1.4756338596 -13.379598618 -0.80838996172 3.3218586445 -9.3058261871 -0.40836918354
          0.96197289228 -8.9381656647 0.31753593683 1.9604325294 -12.207310677 0.3619812727
          2.0423905849 -14.315917969 -0.28213641047 1.4997200966 -13.607045174 -0.48214632273
          0.39126378298 -12.120660782 9.367827829e-07 1.3843775988 -11.693634987 0.60863864422
          8.040760994 -16.916439056 0.28034624457 0.37416952848 -10.40322876 0.79489833117
          5.8665852547 -16.781572342 4.0221209474e-07 1.4779546261 -4.4226164818 -0.52261537313
          0.93071359396 -8.9049272537 -1.648768739e-05 2.0482299328 -14.323662758 7.8988017549e-07
          1.5713551044 -13.674570084 4.9624395615e-07 1.3741338253 -12.489549637 -0.15913973749
          3.8485636711 -16.676288605 -0.5451823473 12.743833542 -17.444452286 0.63586515188
          0 0 0 0.38445800543 -12.125555992 0.32184284925
          1.928737402 -3.4173038006 -0.66670691967 1.295792222 -12.977888107 -0.11975213885
          3.0617899895 -14.070649147 0.52640604973 10.335018158 -17.139440536 0.60489493608
          3.8691658974 -16.681562424 -0.2597476542 13.794148445 -19.901941299 -0.62446343899
          0 0 0 2.0039319992 -11.842025757 0.61388748884
          13.804588318 -19.930322647 -0.31116962433 3.003105402 -2.7444851398 -0.0077312691137
          11.318821907 -19.604187012 -0.58432418108 5.8605370522 -16.77287674 0.26315185428
          0 0 0 0.96197724342 -8.9381732941 -0.31756836176
          11.330130577 -19.634485245 -0.29077631235 3.0285079479 -2.7456297874 -0.0069561889395
          2.0423905849 -14.315918922 0.28213799 1.4997205734 -13.607045174 0.4821472466
          8.0190696716 -16.888849258 0.5666809082 1.3281259537 -13.171204567 -2.5553604246e-06
          3.8768160343 -16.689744949 6.1028003984e-07 1.5860865116 -4.580994606 -0.93246120214
          0.61466664076 -14.459145546 -0.65763038397 3.0017690659 -3.6432540417 0.017295956612
          8.87895298 -19.352561951 -0.53902047873 0.68010544777 -14.107237816 -1.0227539539
          13.809828758 -19.939586639 -2.4136522825e-07 0 0 0
          0.63677370548 -14.424402237 -0.33223280311 11.334434509 -19.643760681 -1.8374059607e-08
          3.0383479595 -2.7421457767 -8.0982485088e-05 8.8934555054 -19.381469727 -0.26737210155
          3.0275838375 -3.6467308998 0.014693534933 0.83915257454 -14.292298317 -0.50688678026
          0.37998476624 -12.147761345 0.6266567111 0.66038680077 -14.43060112 9.5875873285e-07
          0.9711099267 -13.852856636 -0.50059485435 1.295793891 -12.977889061 0.11974671483
          2.38088274 -16.740447998 -0.52482903004 8.8977088928 -19.388965607 2.0319754412e-07
          5.8429279327 -16.755346298 0.52432233095 3.8691658974 -16.681562424 0.25974887609
          0.94304025173 -14.444081306 8.6334671323e-07 3.0398750305 -3.650758028 -7.7406868513e-05
          1.4141851664 -8.9247331619 -1.0351641178 13.804588318 -19.930322647 0.31116914749
          6.4940743446 -19.209259033 -0.49478524923 1.0172784328 -14.164357185 -0.28883758187
          2.903131485 -4.9189710617 0.32408383489 2.4078242779 -16.740213394 -0.26491677761
          2.0170276165 -14.330354691 0.59316754341 1.4756351709 -13.379598618 0.80839049816
          0 0 0 2.9622137547 -4.9670124054 0.03443017602
          11.330130577 -19.634485245 0.29077628255 3.0285153389 -2.7456600666 0.0067939944565
          6.5102133751 -19.227434158 -0.24820531905 1.0766311884 -14.303362846 1.6736969144e-07
          2.4145109653 -16.744033813 8.106809446e-07 0.6367739439 -14.424403191 0.33223474026
          6.5140051842 -19.232757568 4.002834828e-07 2.9799852371 -5.174861908 -6.8197645305e-05
          8.8934555054 -19.381469727 0.26737248898 3.0275912285 -3.6467609406 -0.014848168008
          0.83915281296 -14.292298317 0.5068885684 1.3741395473 -12.489547729 0.15913264453
          3.8485636711 -16.676288605 0.545183599 4.5191855431 -19.209495544 -0.48621857166
          13.794148445 -19.901941299 0.62446296215 0 0 0
          1.279758215 -12.703050613 0.32223311067 3.0031204224 -2.7445464134 0.0075690425001
          11.318821907 -19.604188919 0.58432418108 1.0172790289 -14.164357185 0.2888379097
          2.4078242779 -16.740213394 0.26491838694 4.5381269455 -19.212760925 -0.24293883145
          0.11059165746 -15.250144958 -0.92238682508 0.92822641134 -13.133544922 0.078452758491
          2.962218523 -4.967040062 -0.034566618502 6.5102133751 -19.227434158 0.24820612371
          0.21676838398 -15.212040901 -0.44294938445 1.2735180855 -17.161071777 -0.66836756468
          1.0043143034 -15.265073776 -0.66322749853 14.834848404 -22.415550232 -0.62172007561
          0 0 0 12.282236099 -22.117937088 -0.57540178299
          0.61466693878 -14.4591465 0.65763235092 3.0017840862 -3.6433150768 -0.017450591549
          8.87895298 -19.352563858 0.53902089596 1.0987122059 -15.563735962 -0.36855584383
          1.322411418 -17.126052856 -0.31543648243 0.680105865 -14.107237816 1.0227556229
          14.838871956 -22.448637009 -0.30985406041 0 0 0
          0.77640402317 -13.307915688 -3.6962555896e-06 4.5393309593 -19.215812683 6.1519131123e-07
          2.0995535851 -2.7432157993 -0.011189004406 12.286911964 -22.151960373 -0.28634670377
          2.1307821274 -2.7452528477 -0.0090819168836 0.25911217928 -15.242256165 1.0615636938e-06
          9.7373857498 -21.857908249 -0.52362966537 1.1681513786 -15.680052757 8.1624932591e-07
          1.3447774649 -17.142295837 9.6157918961e-07 14.84181118 -22.45923996 -2.5677283588e-07
          0 0 0 2.1016428471 -3.6445600986 0.02476930432
          9.7444067001 -21.889680862 -0.2609988451 12.289244652 -22.162117004 -1.4788987812e-08
          0.97111165524 -13.852855682 0.50059485435 2.3808829784 -16.740447998 0.52483063936
          2.1368227005 -2.7491288185 -6.5690575866e-05 2.1334233284 -3.6446115971 0.022860620171
          6.4940743446 -19.209260941 0.4947861135 2.9031503201 -4.9190244675 -0.3242174983
          0.7943572998 -14.456989288 -0.015173095278 2.8495755196 -19.249752045 -0.49265408516
          0.92822796106 -13.133544922 -0.078461319208 4.5381269455 -19.212760925 0.24294006824
          0.76017558575 -14.83043766 -0.034693736583 2.8683912754 -19.243000031 -0.24733434618
          0.21676877141 -15.212041855 0.44295153022 9.7473649979 -21.898517609 2.1908020642e-07
          2.1331939697 -3.6331248283 -6.2044164224e-05 7.1509561539 -21.647596359 -0.4788249433
          1.0987126827 -15.563735962 0.36855739355 1.3224116564 -17.126054764 0.31543841958
          14.838871956 -22.448637009 0.30985355377 0 0 0
          2.1141426563 -4.5978856087 0.059727597982 7.1613869667 -21.671871185 -0.23820288479
          12.286911964 -22.151960373 0.28634667397 2.1604428291 -4.6373643875 0.060536999255
          0.76861667633 -14.965781212 -1.0106177939e-07 2.8776316643 -19.24653244 8.0507726352e-07
          2.1307895184 -2.7452831268 0.0089504159987 9.7444067001 -21.88968277 0.26099929214
          7.1662130356 -21.678333282 4.3660793381e-07 1.9887766838 -5.0611634254 -5.693109415e-05
          4.5191855431 -19.209495544 0.48621979356 0.296800524 -17.569004059 -0.76397120953
          2.1334307194 -3.6446416378 -0.022984175012 1.2797685862 -12.703048706 -0.32224518061
          0.76653748751 -16.853364944 -0.74590885639 0.38221341372 -17.55761528 -0.38661691546
          0.11059229076 -15.250145912 0.92238897085 0.91214179993 -17.200986862 -0.38063660264
          0.76017653942 -14.83043766 0.034693423659 2.8683912754 -19.243000031 0.2473359853
          1.2735184431 -17.161073685 0.66836953163 1.0043152571 -15.26507473 0.66322892904
          0.70785450935 -12.293516159 0.76041913033 4.9833664894 -21.62071228 -0.45150151849
          14.834849358 -22.415550232 0.62171953917 0 0 0
          12.282237053 -22.117937088 0.57540178299 0.52975213528 -12.661091805 0.32208314538
          0.41873416305 -17.57815361 1.1029818552e-06 0.28234997392 -15.597281456 -0.22472815216
          1.6404105425 -19.494462967 -0.57830053568 4.9986858368 -21.619955063 -0.23017372191
          2.0995688438 -2.7432773113 0.011057526805 0.99143779278 -17.353862762 9.7226040907e-07
          7.1613874435 -21.671871185 0.23820376396 2.160449028 -4.6373929977 -0.060651700944
          1.6751685143 -19.466821671 -0.2786476016 0.42822891474 -15.959507942 -0.11470751464
          9.7373867035 -21.857908249 0.52363008261 0.43512779474 -12.834547997 -5.7182710407e-06
          5.0064702034 -21.6235466 6.0506937416e-07 2.1016581059 -3.6446211338 -0.024892874062
          1.6827558279 -19.473537445 9.9478279481e-07 15.875906944 -24.999471664 -0.62505614758
          0 0 0 0.51273393631 -16.097812653 7.6868269616e-07
          15.875922203 -25.036340714 -0.31167721748 0 0 0
          0.38221380115 -17.55761528 0.38661912084 13.242046356 -24.700593948 -0.57430893183
          0.79436051846 -14.456988335 0.015172093175 2.849575758 -19.249753952 0.49265578389
          1.1935049295 -2.7417190075 -0.016929175705 0.91214215755 -17.200986862 0.38063856959
          13.242542267 -24.737417221 -0.28613060713 1.2454323769 -2.7521402836 -0.015909848735
          7.1509566307 -21.647598267 0.47882583737 15.877371788 -25.048177719 -2.6757854243e-07
          0.52975320816 -12.661092758 -0.32209658623 10.59253788 -24.435722351 -0.52234894037
          1.1895296574 -3.6455790997 0.0347064659 4.9986858368 -21.619955063 0.23017497361
          0 0 0 3.3562443256 -21.682178497 -0.48861190677
          0.63466823101 -14.447255135 0.29290777445 2.1141576767 -4.5979452133 -0.059842325747
          1.2449746132 -3.6291787624 0.028442595154 10.595187187 -24.469301224 -0.26015406847
          13.243465424 -24.748792648 -1.7363532834e-09 1.6751686335 -19.466821671 0.27864959836
          0.51841324568 -14.768672943 0.15603092313 3.3684046268 -21.670282364 -0.24018166959
          0.42822942138 -15.959507942 0.11470901221 1.275485158 -2.7760231495 -5.0128357543e-05
          0.36313083768 -18.567525864 -0.71686518192 10.59708786 -24.479761124 2.5790654945e-07
          0.29680112004 -17.569004059 0.7639734745 1.2827546597 -3.5761535168 -4.6363631554e-05
          0.47571542859 -14.887777328 -7.0949440101e-08 0.50847685337 -18.742593765 -0.34836867452
          3.3760368824 -21.671606064 8.3154543518e-07 0.76653808355 -16.853366852 0.74591088295
          15.875923157 -25.036340714 0.31167668104 7.9434695244 -24.203365326 -0.48187240958
          0.32569828629 -17.483358383 -0.29533359408 0 0 0
          1.1704263687 -4.5890827179 0.093602232635 0.72451967001 -19.905920029 -0.69325381517
          1.2175775766 -4.6442847252 0.084847964346 7.947145462 -24.230190277 -0.23822370172
          13.242542267 -24.737417221 0.28613060713 0.45978537202 -17.834920883 -0.12144269794
          0.80165541172 -19.900934219 -0.33437401056 1.2454400063 -2.7521705627 0.0158093106
          0.70787036419 -12.293518066 -0.76043778658 4.9833664894 -21.62071228 0.45150285959
          0.57306265831 -18.819015503 1.1438216916e-06 0.282351017 -15.59728241 0.22472955287
          1.6404109001 -19.494464874 0.57830256224 7.9495859146 -24.239625931 5.1094491482e-07
          10.595187187 -24.469301224 0.26015457511 0.51522493362 -17.960296631 1.0127098449e-06
          1.2449821234 -3.6292088032 -0.028535066172 1.2635456324 -5.2078847885 -4.0289240133e-05
          0.51841419935 -14.768672943 -0.15603107214 3.3684048653 -21.670282364 0.24018336833
          0.83400481939 -19.919473648 1.1550584986e-06 2.0514681339 -21.838748932 -0.51675695181
          0.83380442858 -15.500301361 0.30443099141 2.0649404526 -21.820833206 -0.25991564989
          0.7115329504 -15.833753586 0.17099860311 15.875906944 -24.999471664 0.62505561113
          0 0 0 0.50847733021 -18.742593765 0.3483709693
          0.41213107109 -11.094323158 1.0517355204 5.5521264076 -24.038930893 -0.47639262676
          0.28411120176 -11.418930054 0.49421402812 13.24204731 -24.700593948 0.57430893183
          1.1935206652 -2.7417805195 0.016828494146 5.5555820465 -24.038663864 -0.23207914829
          7.947145462 -24.230190277 0.2382247299 0.45978578925 -17.834922791 0.1214447096
          1.2175848484 -4.6443128586 -0.084931209683 0.80165576935 -19.900936127 0.33437630534
          2.0674028397 -21.819538116 1.0607933518e-06 0.66384470463 -15.950674057 5.8632156197e-07
          10.59253788 -24.435724258 0.52234947681 1.1895455122 -3.6456398964 -0.034798849374
          3.3562445641 -21.682178497 0.48861369491 0.21722523868 -11.586241722 -4.7728085519e-06
          0.63467097282 -14.447256088 -0.29290831089 5.5657229424 -24.041770935 6.8564355615e-07
          16.924251556 -27.663722992 -0.63137310743 0 0 0
          0.36313167214 -18.567525864 0.7168674469 2.0649404526 -21.820833206 0.25991779566
          0 0 0 14.202438354 -27.362110138 -0.57650077343
          0.44119888544 -19.25592041 -0.23102924228 0.71153378487 -15.833753586 -0.17099745572
          0.33196750283 -2.7665879726 -0.046661123633 0.28163304925 -20.46414566 -0.61648547649
          16.922445297 -27.703943253 -0.31504431367 7.9434695244 -24.203367233 0.48187342286
          14.20122242 -27.40173912 -0.28781208396 0.46599286795 -2.79641819 -0.025820937008
          0.32569909096 -17.483360291 0.29533556104 0.51163452864 -19.480754852 -0.096887156367
          1.1704425812 -4.5891427994 -0.093685619533 3.8756206036 -24.009271622 -0.48569634557
          0.2841129601 -11.418931961 -0.49422463775 0.72452026606 -19.905920029 0.69325619936
          0.2310744822 -13.792804718 0.67082107067 5.5555825233 -24.038663864 0.232080549
          0.35586577654 -20.534479141 -0.29314300418 0.14564570785 -14.022806168 0.33982101083
          3.8806004524 -24.001005173 -0.24322852492 11.465929031 -27.087039948 -0.52298998833
          16.923072815 -27.716911316 -2.7432645311e-07 0.32023081183 -3.5726177692 0.12147284299
          0 0 0 11.46744442 -27.12411499 -0.26061713696
          0.47427803278 -3.5260784626 0.052747208625 14.20144558 -27.414356232 1.9184323463e-08
          1.127745986 -22.198133469 -0.60128450394 0.53550350666 -19.535573959 1.2236052953e-06
          0.36913728714 -20.539337158 1.3020953702e-06 0.7217143774 -17.643724442 0.36364662647
          0.51767557859 -2.8032236099 -3.46189845e-05 1.1802653074 -22.195713043 -0.28537961841
          3.8852086067 -24.001049042 9.1976096428e-07 0.62039470673 -17.833141327 0.19463858008
          0.12020312995 -14.096914291 6.7401111359e-09 2.0514686108 -21.838748932 0.51675909758
          11.468369484 -27.135686874 3.0919733263e-07 0.83380621672 -15.500301361 -0.30442994833
          0.52904397249 -3.5029830933 -3.0984338082e-05 8.7155780792 -26.839851379 -0.47328126431
          16.922445297 -27.703943253 0.31504374743 1.1935272217 -22.200220108 1.2540173202e-06
          0.24537782371 -4.6533770561 0.20228782296 0.4121427834 -11.094327927 -1.0517507792
          0.57799309492 -17.892705917 9.4806597417e-07 5.5521268845 -24.0389328 0.47639411688
          0 0 0 8.718462944 -26.871292114 -0.23719373345
          0.30768656731 -4.9560894966 0.2397852838 14.20122242 -27.40173912 0.28781214356
          0.51163488626 -19.480754852 0.096889585257 0.35586625338 -20.534481049 0.29314559698
          0.46599987149 -2.7964477539 0.025751454756 3.8806004524 -24.001005173 0.24323040247
          0.14564654231 -14.022806168 -0.33982098103 11.46744442 -27.12411499 0.2606177628
          8.7188892365 -26.882377625 5.869997608e-07 2.4493961334 -24.066423416 -0.50726610422
          0.31649783254 -15.155572891 0.57535046339 0.21267274022 -5.6568903923 -2.0387298719e-05
          0.47428533435 -3.5261082649 -0.052809242159 0.24152299762 -15.38472271 0.29835605621
          1.1802656651 -22.195713043 0.2853821218 2.4590804577 -24.061477661 -0.25389078259
          0.62039542198 -17.833141327 -0.19463671744 6.3817591667 -26.618486404 -0.50159239769
          16.924253464 -27.663722992 0.63137257099 0 0 0
          -0.15921168029 -10.156817436 1.1171627045 6.3844714165 -26.622385025 -0.24299494922
          14.202439308 -27.362112045 0.57650077343 -0.27184903622 -10.23735714 0.57575142384
          0.4411996007 -19.255922318 0.23103165627 2.4647960663 -24.063985825 1.1463577039e-06
          0.33198204637 -2.7666473389 0.046590734273 0.28163388371 -20.464147568 0.61648803949