<?xml version="1.0"?>
<VTKFile type="UnstructuredGrid" version="0.1" byte_order="LittleEndian" header_type="UInt32" compressor="vtkZLibDataCompressor">
  <UnstructuredGrid>
    <Piece NumberOfPoints="6405" NumberOfCells="4800">
      <PointData>
        <DataArray type="Float32" Name="DISPLACEMENT" NumberOfComponents="3" ComponentName0="X-DISPLACEMENT" ComponentName1="Y-DISPLACEMENT" ComponentName2="Z-DISPLACEMENT" format="ascii" RangeMin="0" RangeMax="366.77661021">
          0 0 0 0 0 0
          2.7651464939 -1.5025488138 -1.2916532755 0 0 0
          1.5911265612 -0.79370558262 -0.85433650017 0 0 0
          2.5389137268 -1.7624981403 -0.51186025143 1.3819676638 -1.0249180794 -0.34696012735
          0 0 0 5.0972661972 -3.1951737404 -1.3504995108
          0 0 0 5.0274376869 -3.5109286308 -0.68469756842
          3.211994648 -2.6347947121 -0.95773631334 0 0 0
          0 0 0 2.5578260422 -1.8383057117 -1.1922911547e-08
          0.78123295307 -0.49828526378 -0.44895210862 1.3748044968 -1.0672820807 -7.4678778716e-09
          3.1364438534 -2.9057793617 -0.48625698686 0.66376632452 -0.72032743692 -0.18013246357
          4.9771060944 -3.5979161263 -3.2644987158e-08 1.6105153561 -2.2522025108 -0.54793334007
          0 0 0 3.0934119225 -2.9871137142 -2.3495354995e-08
          1.5280569792 -2.5082633495 -0.27919366956 0 0 0
          7.2203893661 -5.6920080185 -1.2650303841 0 0 0
          0.65735393763 -0.75576025248 -1.2410596995e-09 0 0 0
          0 0 0 2.5389137268 -1.7624981403 0.51186025143
          4.7378339767 -5.1635890007 -0.93107038736 7.2370347977 -5.9414362907 -0.63739490509
          -0.12456105649 -0.44152721763 -0.021175649017 1.3819676638 -1.0249180794 0.34696012735
          4.7432026863 -5.3997077942 -0.47214159369 -0.21880316734 -0.67666268349 -0.025004317984
          1.494035244 -2.5797848701 -1.2652828119e-08 5.0274376869 -3.5109286308 0.68469750881
          0 0 0 0 0 0
          -0.11780774593 -2.1220393181 -0.16156877577 2.5282149315 -4.8092164993 -0.60604345798
          7.2140583992 -6.0233826637 -6.1415988739e-08 3.1364438534 -2.9057793617 0.48625692725
          2.4815206528 -5.0303149223 -0.30686086416 0.66376632452 -0.72032743692 0.18013246357
          4.7283248901 -5.4728965759 -4.6274923449e-08 -0.21121110022 -2.3699154854 -0.09383713454
          -0.25080254674 -0.71880197525 7.3687362878e-09 0 0 0
          9.1440553665 -8.7275123596 -1.111376524 0 0 0
          6.1967663765 -8.2517852783 -0.87155199051 1.5280569792 -2.5082633495 0.27919363976
          9.1903057098 -8.9065723419 -0.55856186152 2.7651464939 -1.5025488138 1.2916531563
          0 0 0 0 0 0
          -0.23974812031 -2.4428913593 -1.3964109868e-09 2.4622166157 -5.0973134041 -3.0402674156e-08
          -0.9645858407 -0.72473555803 0.30576616526 6.2278528214 -8.4245977402 -0.43790352345
          1.591126442 -0.79370558262 0.85433644056 0.15578489006 -4.6309561729 -0.30164441466
          0 0 0 7.2370347977 -5.9414362907 0.63739478588
          -1.0582538843 -0.94531315565 0.12791511416 0.082324646413 -4.835978508 -0.15848426521
          4.7432026863 -5.3997077942 0.47214150429 -0.21880319715 -0.67666268349 0.02500432916
          3.5095722675 -7.912478447 -0.63858938217 -1.4513151646 -2.2892355919 0.097003750503
          9.1815958023 -8.9648303986 -9.7516888786e-08 5.0972657204 -3.1951737404 1.3504995108
          0 0 0 0 0 0
          3.4816784859 -8.0712127686 -0.32080405951 3.211994648 -2.6347947121 0.95773625374
          6.2285475731 -8.4797649384 -7.523405543e-08 -1.5969765186 -2.48960042 0.060320958495
          0.78123295307 -0.49828526378 0.44895207882 -1.1282217503 -1.0094125271 1.6527126334e-08
          0.066540054977 -4.9006614685 -1.3559568579e-08 2.4815204144 -5.0303149223 0.30686080456
          -0.21121114492 -2.3699154854 0.09383713454 3.4721505642 -8.1217679977 -5.1391445766e-08
          1.6105152369 -2.2522025108 0.54793334007 -1.6353062391 -2.5662164688 1.0137316764e-08
          0.67875009775 -7.7129063606 -0.43678885698 9.1903057098 -8.9065723419 0.5585616231
          7.2203893661 -5.6920080185 1.2650302649 0 0 0
          10.842288971 -12.137828827 -0.96443623304 0 0 0
          0 0 0 -1.624425292 -4.7493181229 -0.14889767766
          0.61998260021 -7.8485946655 -0.2203258127 10.891406059 -12.249928474 -0.48271131516
          7.5739970207 -11.709453583 -0.81265574694 6.2278528214 -8.4245977402 0.43790337443
          -1.4365497828 -1.1796600819 0.58384782076 0 0 0
          4.7378339767 -5.1635890007 0.93107032776 -0.12456109375 -0.44152724743 0.021175647154
          -1.7883241177 -4.866607666 -0.065681144595 -1.0582541227 -0.94531315565 -0.12791508436
          -1.5063564777 -1.3259851933 0.25483578444 0.082324624062 -4.835978508 0.15848423541
          7.6087450981 -11.819032669 -0.40566143394 3.4816784859 -8.0712127686 0.3208039403
          0.61269950867 -7.8962945938 -2.6693468769e-08 10.889392853 -12.286819458 -1.4099819623e-07
          -2.3001041412 -2.6624164581 0.24481627345 -1.5969766378 -2.48960042 -0.060320932418
          0 0 0 4.5445313454 -11.383606911 -0.66574347019
          -0.11780781299 -2.1220393181 0.16156877577 2.5282149315 -4.8092164993 0.60604339838
          -1.8183107376 -4.9293189049 9.0498453176e-09 7.6144828796 -11.853603363 -1.101486049e-07
          -1.5464297533 -1.3799271584 -3.2101354464e-08 -2.5628349781 -2.787725687 0.14868870378
          4.5251970291 -11.478058815 -0.33276435733 9.1440553665 -8.7275123596 1.1113762856
          0 0 0 -1.4743928909 -7.8587026596 -0.44654127955
          6.1967663765 -8.2517852783 0.8715518117 -2.6166417599 -2.8513259888 8.6308844516e-09
          -1.6258280277 -7.862593174 -0.20952863991 4.5209083557 -11.508627892 -7.7742491555e-08
          -0.96458613873 -0.72473561764 -0.30576613545 0.61998254061 -7.8485946655 0.22032576799
          1.3969595432 -11.161426544 -0.55640482903 10.891406059 -12.249928474 0.48271101713
          -2.5993545055 -5.1897239685 -0.3401670754 0.15578483045 -4.6309561729 0.30164438486
          0 0 0 -1.7883243561 -4.866607666 0.065681144595
          1.3495117426 -11.228050232 -0.27933600545 -1.5063564777 -1.3259853125 -0.25483584404
          -2.9510066509 -5.1293702126 -0.1402939111 7.6087450981 -11.819032669 0.40566119552
          3.5095720291 -7.912478447 0.63858926296 -1.451315403 -2.2892355919 -0.097003750503
          12.325581551 -15.763342857 -0.83930921555 0 0 0
          -1.6453505754 -7.90711689 -1.4577337559e-08 8.8662414551 -15.380288124 -0.761942029
          12.368721008 -15.820269585 -0.41966378689 0 0 0
          -0.72461158037 -1.5747467279 0.45577147603 8.897559166 -15.435313225 -0.37926054001
          1.3467481136 -11.256373405 -4.8093642846e-08 -0.73005282879 -1.5533545017 0.20658105612
          -2.5628349781 -2.787725687 -0.14868867397 -2.9924452305 -5.1754522324 -8.5494820112e-09
          4.5251970291 -11.478058815 0.33276420832 5.6159286499 -15.070866585 -0.68883687258
          -1.12213552 -3.1367790699 -0.021764811128 12.369464874 -15.839056015 -1.9314175859e-07
          0 0 0 -1.463224411 -3.080545187 -0.0030352999456
          5.6034650803 -15.109181404 -0.34415671229 8.904381752 -15.452058792 -1.512066774e-07
          -0.75646722317 -1.5901217461 -3.3188776172e-08 0.67875003815 -7.7129063606 0.43678879738
          -1.0620231628 -11.301962852 -0.70835334063 10.842288971 -12.137828827 0.96443593502
          0 0 0 -2.2412471771 -8.6927061081 -1.2604317665
          -1.6258283854 -7.862593174 0.20952856541 -1.6244257689 -4.7493181229 0.14889761806
          7.5739970207 -11.709453583 0.81265550852 -1.4365495443 -1.1796602011 -0.58384782076
          -2.5463955402 -8.377863884 -0.53193181753 -1.1709040403 -11.226150513 -0.34022513032
          1.3495116234 -11.228050232 0.27933588624 -2.9510066509 -5.1293702126 0.1402938962
          5.6022744179 -15.121973991 -1.0764976821e-07 -1.4260665178 -3.1678202152 -6.4725917071e-08
          2.2789883614 -14.834007263 -0.66055953503 -1.0270667076 -6.6427769661 -1.6524512768
          -2.3001039028 -2.6624166965 -0.24481622875 12.368721008 -15.820269585 0.41966339946
          4.5445308685 -11.383606911 0.66574335098 0 0 0
          -1.175314784 -11.260443687 -6.1970162335e-08 -2.5513696671 -8.4023694992 -6.641067074e-08
          2.2447474003 -14.841105461 -0.33224272728 8.897559166 -15.435313225 0.37926024199
          -1.2701686621 -6.2370853424 -0.66265892982 -0.73005282879 -1.5533546209 -0.20658108592
          -1.474393487 -7.8587021828 0.44654104114 2.2465641499 -14.852872849 -6.9107450429e-08
          5.6034650803 -15.109181404 0.34415650368 -1.4632242918 -3.0805454254 0.0030352175236
          -1.1042456627 -6.3162426949 -8.1100317573e-08 13.625150681 -19.473976135 -0.74165844917
          0 0 0 13.660159111 -19.48992157 -0.37106528878
          1.396959424 -11.161426544 0.55640470982 10.076594353 -19.129283905 -0.72039335966
          -2.5993545055 -5.1897244453 0.3401671648 -1.1849461794 -12.508276939 -1.9158291817
          -0.73060011864 -1.7453012466 0.30455568433 -2.5463953018 -8.377863884 0.53193169832
          -1.1709045172 -11.226150513 0.34022498131 0 0 0
          10.103582382 -19.143400192 -0.35800656676 -1.2470420599 -12.167676926 -0.83752924204
          -0.77718710899 -1.6485881805 0.073128268123 -0.36684948206 -14.914937973 -0.93365079165
          -0.11106496304 -11.526003838 -2.150305748 12.325581551 -15.763343811 0.83930885792
          0 0 0 8.8662414551 -15.380288124 0.76194167137
          13.662801743 -19.495445251 -2.5338738396e-07 0.083328902721 -11.504910469 -1.0348776579
          -0.43297979236 -14.789890289 -0.44745001197 -0.72461158037 -1.5747468472 -0.45577150583
          6.7016334534 -18.843708038 -0.70292216539 -1.0563617945 -3.5755772591 -0.48117822409
          0 0 0 2.2447474003 -14.841105461 0.33224257827
          -1.2701686621 -6.2370858192 0.66265875101 10.110443115 -19.14676857 -1.9622221714e-07
          -1.2214820385 -12.17463398 -2.2184912041e-07 6.6990084648 -18.839229584 -0.35200768709
          -1.4222046137 -3.6081135273 -0.21531507373 -0.70596534014 -1.6561908722 -6.6554385114e-08
          5.6159286499 -15.070866585 0.68883663416 -1.1221356392 -3.1367793083 0.021764788777
          -0.42321968079 -14.810680389 -8.9797794089e-08 0.20035284758 -11.565297127 -4.0663618961e-07
          -1.0620237589 -11.301962852 0.7083530426 6.7006292343 -18.839096069 -1.3797792064e-07
          -1.3554604053 -3.9008705616 -1.9603983503e-07 -2.2412469387 -8.6927061081 1.2604316473
          13.660158157 -19.48992157 0.37106478214 3.2895023823 -18.606199265 -0.74412453175
          0 0 0 -0.6113293767 -8.9621334076 -2.2637856007
          3.2748994827 -18.568712234 -0.37185695767 10.103582382 -19.143400192 0.35800617933
          -0.7771871686 -1.6485882998 -0.07312835753 -1.2470415831 -12.167676926 0.83752888441
          -0.85010874271 -8.4757909775 -1.020429492 2.2789883614 -14.834007263 0.66055935621
          0.21981815994 -16.338212967 -1.9067993164 -0.43298017979 -14.789890289 0.44744980335
          -1.027066946 -6.6427774429 1.6524507999 0.083328805864 -11.504908562 1.0348769426
          0.0068467985839 -14.295223236 -1.8634990454 0.42440262437 -16.299608231 -0.86447405815
          3.2799260616 -18.569465637 -8.4455471949e-08 6.6990084648 -18.839229584 0.35200738907
          -1.4222044945 -3.6081137657 0.21531477571 0.23200188577 -14.391003609 -0.97319704294
          -1.0904991627 -8.0148334503 -5.8623010091e-07 14.786659241 -23.171705246 -0.67375820875
          0 0 0 0.043464027345 -1.8772832155 -0.44060081244
          0.51725149155 -16.368814468 -2.7873940667e-07 0.6787981391 -18.691589355 -1.1104409695
          11.219015121 -22.852592468 -0.68571841717 13.625150681 -19.473978043 0.74165791273
          0 0 0 0 0 0
          0.31162136793 -14.420980453 -4.1424277697e-07 -0.29539072514 -12.862752914 -1.738491416
          14.813414574 -23.163003922 -0.33715555072 0.68028593063 -18.546613693 -0.51402330399
          11.242093086 -22.842271805 -0.3407188952 10.076593399 -19.129283905 0.72039294243
          -0.047225195915 -1.7324483395 -0.15119786561 -1.1849455833 -12.508276939 1.9158290625
          -0.73060029745 -1.7453013659 -0.30455580354 -0.074753165245 -13.118682861 -0.95648056269
          3.2748994827 -18.568712234 0.37185677886 -0.85010826588 -8.4757909775 1.0204282999
          7.7750134468 -22.58032608 -0.70176458359 -0.3668500185 -14.914937973 0.93365049362
          -0.11106548458 -11.52600193 2.1503052711 0 0 0
          1.6924015284 -7.8877930641 -1.7014477253 14.817834854 -23.160406113 -3.1956733437e-07
          0.0013903783401 -1.8776801825 -1.6562783856e-07 0.70157855749 -18.557437897 -8.5223788915e-08
          7.7851977348 -22.55222702 -0.35113462806 6.7016334534 -18.843708038 0.70292186737
          11.248695374 -22.83773613 -2.4303605528e-07 -1.0563617945 -3.5755777359 0.48117810488
          -0.0054184421897 -13.19376564 -8.0111402667e-07 1.8317131996 -8.4043388367 -0.79854005575
          0.42440342903 -16.299608231 0.86447358131 0.23200260103 -14.391004562 0.97319626808
          0.20603014529 -17.464847565 -1.5196452141 7.7895832062 -22.544612885 -1.6604184339e-07
          1.9875802994 -8.5902023315 -1.4575930436e-06 0.37938970327 -17.591043472 -0.78545159101
          4.3849205971 -22.360031128 -0.77583414316 0 0 0
          1.3188844919 -11.546339035 -1.3036557436 14.813414574 -23.163003922 0.33715489507
          -0.047225292772 -1.7324483395 0.15119740367 0.68028557301 -18.546613693 0.51402312517
          4.3936514854 -22.300683975 -0.38665363193 3.2895021439 -18.606199265 0.74412435293
          11.242093086 -22.842271805 0.34071841836 1.3819556236 -19.940126419 -1.5103000402
          0.094159342349 -15.701571465 -1.4780480862 -0.61132907867 -8.9621324539 2.2637844086
          1.5866993666 -12.052523613 -0.75570452213 -0.074753321707 -13.118682861 0.95647907257
          1.587105751 -19.943683624 -0.71976131201 0.29283201694 -16.010053635 -0.74776363373
          0.41859266162 -17.593008041 -2.6710500833e-07 0.21981920302 -16.338212967 1.9067989588
          7.7851977348 -22.55222702 0.35113430023 0.0068476987071 -14.29522419 1.8634983301
          4.398165226 -22.293233871 -9.4139302576e-08 1.8317139149 -8.4043397903 0.79853719473
          1.7484685183 -12.14193058 -1.5280222669e-06 1.650883913 -19.944656372 -2.0088441488e-07
          0.37007433176 -16.119279861 -7.1633735388e-07 0.65433377028 -14.614370346 -1.0832796097
          1.9067687988 -22.451463699 -1.0768067837 14.786659241 -23.171705246 0.6737575531
          0 0 0 0.37939029932 -17.591043472 0.78545099497
          0.043463684618 -1.8772832155 0.44060027599 0.80996638536 -15.154417992 -0.57806617022
          0.67879772186 -18.691589355 1.110440731 11.219015121 -22.852592468 0.68571794033
          1.9572936296 -22.329557419 -0.51040387154 15.863279343 -26.803665161 -0.63432240486
          0 0 0 -0.29539036751 -12.862752914 1.7384902239
          15.882133484 -26.785923004 -0.31710112095 1.6920682192 -4.0156521797 -0.90196502209
          12.312539101 -26.495510101 -0.65735417604 4.3936510086 -22.300683975 0.38665342331
          0 0 0 1.5867003202 -12.052523613 0.75570172071
          12.331323624 -26.476926804 -0.32682976127 1.9297726154 -4.4799776077 -0.41523358226
          1.5871065855 -19.943685532 0.71976089478 0.29283171892 -16.010053635 0.74776238203
          7.7750134468 -22.58032608 0.70176422596 0.90662759542 -15.375205994 -1.3911958376e-06
          1.9717131853 -22.329040527 -6.451924861e-08 1.6924021244 -7.887793541 1.7014454603
          0.60511183739 -20.599096298 -1.237472415 1.4824662209 -8.5978488922 -0.37089362741
          8.8421058655 -26.215171814 -0.68122774363 0.51059871912 -18.788909912 -1.180888772
          15.887771606 -26.780090332 -3.8922794943e-07 0 0 0
          0.72925126553 -20.681087494 -0.6542622447 12.337511063 -26.469518661 -2.8907749083e-07
          2.1065654755 -4.6623950005 -1.5636713897e-06 8.8616371155 -26.183526993 -0.34089267254
          1.9218636751 -9.3036499023 -0.33630773425 0.65968888998 -18.99789238 -0.61212271452
          0.20603106916 -17.464849472 1.5196444988 0.74222624302 -20.653343201 -1.3403844434e-07
          0.22668235004 -16.982030869 -0.93553453684 0.8099681735 -15.154417992 0.57806360722
          2.1453375816 -23.307094574 -1.2401438951 8.8678731918 -26.173530579 -1.9052100697e-07
          4.3849205971 -22.360031128 0.77583390474 1.957293272 -22.329557419 0.51040375233
          0.70492833853 -19.035949707 -5.5407446098e-07 2.1940979958 -9.5993881226 -1.6362580482e-06
          1.3188860416 -11.546339035 1.3036533594 15.882133484 -26.785924911 0.31710034609
          5.4489808083 -25.974819183 -0.74509525299 0.39291751385 -17.365192413 -0.48102769256
          0.92972433567 -12.445689201 -0.4161426723 2.3031890392 -23.322002411 -0.60970884562
          1.3819568157 -19.940126419 1.5102996826 0.094158701599 -15.701570511 1.4780470133
          0 0 0 1.4653196335 -13.144427299 -0.2119371146
          12.331323624 -26.476926804 0.32682919502 1.9297738075 -4.4799795151 0.41523051262
          5.4752082825 -25.920650482 -0.37456181645 0.47604605556 -17.489858627 -9.5797588529e-07
          2.3479001522 -23.320035934 -1.0279715923e-07 0.72925174236 -20.681089401 0.65426188707
          5.481361866 -25.91163826 -1.0435103803e-07 1.7956622839 -13.402038574 -1.6092316173e-06
          8.8616371155 -26.183526993 0.34089228511 1.9218648672 -9.3036499023 0.3363045454
          0.65968888998 -18.99789238 0.61212170124 0.65433621407 -14.614370346 1.0832774639
          1.906768322 -22.451463699 1.0768066645 2.9192545414 -26.005319595 -0.96363371611
          15.863279343 -26.803665161 0.63432168961 0 0 0
          0.90536475182 -15.534230232 -0.32341232896 1.6920691729 -4.0156545639 0.90196228027
          12.312538147 -26.495510101 0.65735358 0.39291980863 -17.365194321 0.48102581501
          2.3031897545 -23.322004318 0.6097086668 2.9837236404 -25.919725418 -0.46483325958
          0.67788887024 -21.549001694 -0.99327528477 1.2889587879 -16.076183319 -0.11541234702
          1.4653208256 -13.144428253 0.21193392575 5.4752082825 -25.920650482 0.37456160784
          0.83335125446 -21.752246857 -0.51736491919 1.161200881 -23.834285736 -1.019724369
          0.17591223121 -19.484275818 -0.80614233017 16.901212692 -30.362596512 -0.61833721399
          0 0 0 13.376605034 -30.056482315 -0.63697403669
          0.60511261225 -20.599096298 1.2374720573 1.4824681282 -8.5978498459 0.37089037895
          8.8421058655 -26.215171814 0.681227386 0.33272767067 -19.770620346 -0.41168689728
          1.308369875 -23.960762024 -0.5349265337 0.51059871912 -18.788909912 1.180888176
          16.912914276 -30.347509384 -0.30868840218 0 0 0
          1.5311368704 -16.258810043 -1.2192302847e-06 2.9956197739 -25.913679123 -4.3918849002e-08
          -1.0802918673 -4.2868061066 0.017314173281 13.390299797 -30.041210175 -0.31686928868
          -0.92703795433 -4.7514257431 -0.055610485375 0.90008544922 -21.82611084 -2.0185812843e-07
          9.8967514038 -29.767326355 -0.65411818027 0.42286399007 -19.858985901 -4.1582578092e-07
          1.352794528 -23.992134094 4.2099177477e-09 16.918872833 -30.342288971 -4.5657864689e-07
          0 0 0 -0.77400869131 -8.2963895798 0.032440163195
          9.9186477661 -29.74392128 -0.32697564363 13.395654678 -30.034889221 -3.2819863804e-07
          0.22668609023 -16.982030869 0.93553292751 2.1453385353 -23.307094574 1.2401437759
          -0.81076973677 -4.8914494514 -1.2429075014e-06 -0.48640370369 -8.9686841965 0.055201463401
          5.4489808083 -25.974821091 0.74509501457 0.92972618341 -12.445689201 0.41613966227
          0.97518360615 -17.899715424 -0.35497891903 2.8430361748 -26.651630402 -1.0067964792
          1.2889597416 -16.076183319 0.11540976167 2.983723402 -25.919725418 0.46483319998
          1.172244072 -18.282688141 -0.13598507643 2.9723470211 -26.688688278 -0.4968533814
          0.8333517313 -21.752246857 0.51736444235 9.9257221222 -29.735933304 -2.0390443467e-07
          -0.30693864822 -9.3080406189 -1.3956679368e-06 6.4968070984 -29.504570007 -0.69660794735
          0.3327293992 -19.770622253 0.41168597341 1.3083702326 -23.960763931 0.53492647409
          16.912914276 -30.347509384 0.30868750811 0 0 0
          0.4437379539 -12.689301491 0.073850281537 6.5273714066 -29.468336105 -0.35004103184
          13.390299797 -30.041212082 0.31686863303 0.67823952436 -13.262827873 0.096692621708
          1.3127976656 -18.391622543 -7.7485532302e-07 3.0091462135 -26.692941666 1.3901572338e-08
          -0.92703676224 -4.7514276505 0.055608056486 9.9186477661 -29.743923187 0.3269752264
          6.5348091125 -29.461854935 -8.6616111616e-08 0.74769830704 -13.45786953 -1.6276437691e-06
          2.919254303 -26.005319595 0.9636336565 0.87303382158 -24.47983551 -0.82592588663
          -0.48640230298 -8.9686841965 -0.05520432815 0.90536636114 -15.534230232 0.32340958714
          0.51930379868 -22.240995407 -0.7338399291 0.99963319302 -24.646362305 -0.40927425027
          0.67788982391 -21.549001694 0.99327486753 0.62232285738 -22.490449905 -0.34046524763
          1.1722445488 -18.282688141 0.13598336279 2.9723477364 -26.688688278 0.4968533814
          1.1612014771 -23.834285736 1.0197241306 0.17591500282 -19.484277725 0.80614125729
          0.9328623414 -15.482509613 0.37379348278 3.9120745659 -29.423204422 -0.84818202257
          16.901212692 -30.362596512 0.61833631992 0 0 0
          13.376605034 -30.056482315 0.63697344065 1.1707969904 -15.734762192 0.22867415845
          1.0498372316 -24.71172142 1.8485051712e-08 1.0170590878 -20.241056442 -0.32638704777
          1.6758929491 -27.015449524 -0.80868810415 3.9729261398 -29.37493515 -0.41113254428
          -1.0802897215 -4.2868089676 -0.017316240817 0.67010968924 -22.574323654 -1.0348703938e-07
          6.5273714066 -29.468336105 0.35004085302 0.67824107409 -13.262828827 -0.09669598192
          1.7959942818 -27.114686966 -0.41754022241 1.101962328 -20.554637909 -0.13710665703
          9.8967514038 -29.767326355 0.65411776304 1.2704265118 -15.791737556 -1.2763275663e-06
          3.9847223759 -29.370624542 1.3536496368e-08 -0.77400571108 -8.2963886261 -0.032443083823
          1.8380295038 -27.137537003 1.1743398431e-07 17.932500839 -33.869716644 -0.61897051334
          0 0 0 1.1601963043 -20.635900497 -4.8801587127e-07
          17.938383102 -33.864276886 -0.30873686075 0 0 0
          0.99963355064 -24.646362305 0.40927428007 14.421861649 -33.562515259 -0.62442588806
          0.97518473864 -17.899717331 0.35497683287 2.8430373669 -26.651630402 1.00679636
          0.59767210484 -3.6016609669 0.39043688774 0.62232363224 -22.490449905 0.34046494961
          14.430652618 -33.557022095 -0.31088870764 0.47153428197 -3.8182346821 0.20811662078
          6.4968070984 -29.504570007 0.69660776854 17.943897247 -33.86208725 -5.1793853117e-07
          1.1707980633 -15.734762192 -0.22867667675 10.931660652 -33.269035339 -0.62827122211
          0.96638733149 -6.8358397484 0.76101881266 3.972925663 -29.37493515 0.41113257408
          0 0 0 3.4475121498 -29.739860535 -0.81631278992
          1.0135924816 -18.074729919 0.23197475076 0.44374185801 -12.689302444 -0.073853693902
          0.76514661312 -7.3601799011 0.3233563602 10.951617241 -33.258434296 -0.31378471851
          14.434841156 -33.554077148 -3.5720674418e-07 1.7959946394 -27.114686966 0.41754043102
          1.3469781876 -18.373170853 0.10694597661 3.5376057625 -29.768678665 -0.40610262752
          1.1019628048 -20.554639816 0.13710556924 0.24205255508 -4.1206994057 -3.6440744111e-07
          0.93904232979 -25.077697754 -0.63712161779 10.958278656 -33.254436493 -2.0181033733e-07
          0.87303459644 -24.47983551 0.82592576742 0.47262701392 -7.7346100807 -1.1323351146e-06
          1.5253475904 -18.443954468 -9.6749261047e-07 0.99163126945 -25.253482819 -0.29621243477
          3.5613343716 -29.762033463 1.429400811e-07 0.51930516958 -22.240995407 0.73383927345
          17.938383102 -33.864276886 0.30873581767 7.5210523605 -32.99432373 -0.64817273617
          1.0403075218 -22.760211945 -0.27711167932 0 0 0
          1.3676174879 -11.710453987 0.98281985521 1.2016865015 -27.524116516 -0.6896032691
          1.4652131796 -12.329546928 0.48613685369 7.5488681793 -32.976051331 -0.32559835911
          14.430652618 -33.557022095 0.31088799238 1.1032550335 -22.990041733 -0.11064036936
          1.2742017508 -27.628738403 -0.33819463849 0.4715333879 -3.8182358742 -0.20811735094
          0.93286520243 -15.482509613 -0.37379637361 3.9120740891 -29.423204422 0.84818202257
          0.99006831646 -25.289161682 -4.8773674877e-08 1.0170602798 -20.241056442 0.32638564706
          1.6758934259 -27.015449524 0.80868816376 7.55585289 -32.973682404 -5.5066568194e-08
          10.951617241 -33.258434296 0.31378433108 1.1427298784 -23.010457993 -2.5652758495e-07
          0.76514565945 -7.360180378 -0.32335844636 1.5183304548 -12.493730545 -1.3455207863e-06
          1.3469793797 -18.373170853 -0.10694790632 3.5376062393 -29.768678665 0.40610286593
          1.2855614424 -27.655956268 1.3273945854e-07 2.1671569347 -29.99937439 -0.68761974573
          0.96037942171 -20.362747192 0.22359038889 2.2391922474 -30.058303833 -0.35132592916
          1.2497965097 -20.639856339 0.12780913711 17.932500839 -33.869716644 0.61896950006
          0 0 0 0.9916318655 -25.253482819 0.29621234536
          1.9733351469 -14.274464607 1.1745680571 4.9079236984 -32.818260193 -0.74916404486
          1.702218771 -14.268573761 0.60187530518 14.421861649 -33.562515259 0.62442517281
          0.59766942263 -3.6016643047 -0.39043879509 4.9595184326 -32.795181274 -0.36519187689
          7.5488681793 -32.976051331 0.3255982399 1.1032556295 -22.990041733 0.11063980311
          1.4652132988 -12.329547882 -0.4861394763 1.2742019892 -27.628740311 0.33819487691
          2.2616732121 -30.058570862 1.8751889286e-07 1.4187575579 -20.702453613 -6.6291511303e-07
          10.931660652 -33.269035339 0.62827080488 0.96638435125 -6.8358402252 -0.76102072001
          3.4475128651 -29.739860535 0.81631290913 1.5902930498 -14.246697426 -1.1673232621e-06
          1.0135945082 -18.074729919 -0.23197676241 4.9729561806 -32.795372009 7.0416135145e-08
          18.975400925 -37.356903076 -0.62984681129 0 0 0
          0.93904328346 -25.077697754 0.63712155819 2.2391924858 -30.058303833 0.35132628679
          0 0 0 15.455363274 -37.047149658 -0.61794060469
          1.1596468687 -25.411951065 -0.25295907259 1.2497975826 -20.639856339 -0.12781050801
          1.1202082634 -2.5826210976 -0.46441209316 1.2925981283 -27.935813904 -0.51000279188
          18.977136612 -37.364620209 -0.31417408586 7.5210523605 -32.99432373 0.64817267656
          15.460420609 -37.054573059 -0.30796211958 1.1871495247 -2.6427121162 -0.086560718715
          1.0403088331 -22.760210037 0.27711096406 1.2127102613 -25.634349823 -0.11589925736
          1.3676166534 -11.710457802 -0.98282194138 4.0929384232 -32.899028778 -0.6951662302
          1.7022190094 -14.268574715 -0.60187762976 1.2016869783 -27.524116516 0.68960344791
          2.1452994347 -17.258569717 0.9334423542 4.9595179558 -32.795181274 0.3651920259
          1.3352342844 -28.101196289 -0.25793072581 1.6545200348 -17.72769165 0.48752054572
          4.155626297 -32.93239212 -0.35289844871 11.940446854 -36.754135132 -0.60555410385
          18.98195076 -37.366752625 -5.6850433339e-07 2.5501368046 -5.4631681442 0.77643764019
          0 0 0 11.958026886 -36.757465363 -0.3024135232
          2.7891843319 -5.2809329033 0.43520274758 15.463518143 -37.056118011 -3.7299108158e-07
          1.4919407368 -30.336410522 -0.568772614 1.2433322668 -25.661243439 -7.4192207933e-08
          1.3342746496 -28.14566803 9.6800462757e-08 0.96402555704 -22.912029266 0.23012851179
          1.2261519432 -2.7089300156 -1.9020318121e-07 1.5387743711 -30.421476364 -0.29574543238
          4.1726579666 -32.934062958 2.0479330942e-07 1.1151376963 -23.03286171 0.14132016897
          1.4155404568 -17.921087265 -9.8431780771e-07 2.1671574116 -29.99937439 0.68762004375
          11.963825226 -36.758277893 -1.8278024072e-07 0.96038138866 -20.3627491 -0.2235917151
          2.7799201012 -5.324742794 -4.9895203347e-07 8.5042448044 -36.482059479 -0.60636126995
          18.977136612 -37.364620209 0.31417292356 1.5473819971 -30.441864014 2.2032109825e-07
          2.8096833229 -9.3048524857 0.92715501785 1.9733351469 -14.274465561 -1.1745698452
          1.2361102104 -22.981077194 -3.4701261598e-07 4.9079232216 -32.818260193 0.74916416407
          0 0 0 8.5287857056 -36.479217529 -0.30409675837
          2.4591927528 -10.474188805 0.43579226732 15.460420609 -37.054573059 0.30796137452
          1.2127109766 -25.63435173 0.115899086 1.3352348804 -28.101196289 0.25793090463
          1.1871495247 -2.6427123547 0.086560107768 4.1556267738 -32.93239212 0.35289883614
          1.6545202732 -17.72769165 -0.48752239347 11.958026886 -36.757465363 0.30241316557
          8.5347490311 -36.481487274 5.217883417e-12 2.6908462048 -33.006374359 -0.61411780119
          2.0176281929 -19.812343597 0.73121803999 2.3002023697 -10.943459511 -1.0106876971e-06
          2.7891845703 -5.2809329033 -0.43520385027 1.6787363291 -20.116804123 0.35928559303
          1.5387744904 -30.421476364 0.29574587941 2.7468554974 -33.063056946 -0.31310838461
          1.1151385307 -23.03286171 -0.14132089913 5.9465327263 -36.279968262 -0.68507134914
          18.975400925 -37.356903076 0.62984567881 0 0 0
          2.2229721546 -12.581858635 1.1172732115 5.989710331 -36.274440765 -0.33196401596
          15.455363274 -37.047149658 0.61793988943 2.3538708687 -12.728877068 0.40973776579
          1.15964818 -25.411952972 0.25295889378 2.7698364258 -33.076725006 2.5357951472e-07