<?xml version="1.0"?>
<VTKFile type="UnstructuredGrid" version="0.1" byte_order="LittleEndian" header_type="UInt32" compressor="vtkZLibDataCompressor">
  <UnstructuredGrid>
    <Piece NumberOfPoints="6405" NumberOfCells="4800">
      <PointData>
        <DataArray type="Float32" Name="DISPLACEMENT" NumberOfComponents="3" ComponentName0="X-DISPLACEMENT" ComponentName1="Y-DISPLACEMENT" ComponentName2="Z-DISPLACEMENT" format="ascii" RangeMin="0" RangeMax="327.12843898">
          0 0 0 0 0 0
          2.7065215111 -1.5546866655 -1.2425618172 0 0 0
          1.5753822327 -0.85965096951 -0.83593457937 0 0 0
          2.4906182289 -1.7903079987 -0.48816144466 1.3692991734 -1.0653190613 -0.34042745829
          0 0 0 4.9243426323 -3.2571995258 -1.261080265
          0 0 0 4.8634524345 -3.5233314037 -0.6405146122
          3.1579148769 -2.7282161713 -0.93588542938 0 0 0
          0 0 0 2.5059249401 -1.8570227623 1.2148379192e-08
          0.77504903078 -0.52643638849 -0.46434566379 1.359770298 -1.0998880863 2.6346669291e-09
          3.087375164 -2.9488487244 -0.47490528226 0.65964174271 -0.72987997532 -0.1879311353
          4.8097352982 -3.5946850777 8.8775964358e-09 1.7559796572 -2.3368310928 -0.59969997406
          0 0 0 3.0460705757 -3.0136380196 -7.0565122634e-09
          1.6506946087 -2.5410523415 -0.29931232333 0 0 0
          6.8607378006 -5.6440014839 -1.1415128708 0 0 0
          0.66666948795 -0.76326757669 -3.3014602163e-09 0 0 0
          0 0 0 2.4906182289 -1.7903079987 0.48816144466
          4.6432623863 -5.155503273 -0.90413713455 6.8848490715 -5.8244256973 -0.57823914289
          -0.073141120374 -0.40860545635 -0.045395698398 1.3692991734 -1.0653190613 0.34042745829
          4.6515741348 -5.3254384995 -0.45944145322 -0.18404124677 -0.64027261734 -0.036813568324
          1.6054362059 -2.5925970078 -1.9456409817e-08 4.8634519577 -3.5233314037 0.6405146122
          0 0 0 0 0 0
          0.10620842129 -2.1481478214 -0.26016104221 2.7520465851 -4.7951865196 -0.6698154211
          6.8607783318 -5.8851690292 -7.152232584e-09 3.087375164 -2.9488487244 0.47490525246
          2.6898498535 -4.9537744522 -0.34435844421 0.65964174271 -0.72987991571 0.1879311204
          4.6370286942 -5.3786196709 -2.916206121e-08 -0.024224154651 -2.3501701355 -0.14406223595
          -0.2146614641 -0.68282276392 -6.548233511e-09 0 0 0
          8.5419073105 -8.3864040375 -0.96976310015 0 0 0
          6.0320329666 -7.9726977348 -0.84187179804 1.6506946087 -2.5410523415 0.29931226373
          8.5929164886 -8.4879026413 -0.49161863327 2.7065215111 -1.5546865463 1.2425618172
          0 0 0 0 0 0
          -0.07053874433 -2.3994886875 -2.8462041612e-08 2.6665933132 -5.0021176338 -4.7942158687e-08
          -0.3897369802 -0.54541647434 0.19352924824 6.0667095184 -8.0697917938 -0.42445904016
          1.5753822327 -0.85965096951 0.83593457937 0.55601453781 -4.5534992218 -0.45483055711
          0 0 0 6.8848490715 -5.8244256973 0.57823908329
          -0.42174994946 -0.72533130646 0.066407673061 0.46602341533 -4.7014632225 -0.24270382524
          4.651573658 -5.3254384995 0.45944139361 -0.18404124677 -0.64027261734 0.036813553423
          3.8146147728 -7.6628365517 -0.72564262152 -0.56027305126 -2.2515654564 -0.27744069695
          8.5857553482 -8.5235795975 -3.5366952034e-08 4.9243426323 -3.2571995258 1.261080265
          0 0 0 0 0 0
          3.7868101597 -7.7434830666 -0.36793994904 3.1579148769 -2.7282161713 0.93588542938
          6.0691685677 -8.1034460068 -6.3608453615e-08 -0.72868317366 -2.3621520996 -0.11310302466
          0.77504897118 -0.52643638849 0.46434563398 -0.45015692711 -0.79593986273 -2.1145751816e-08
          0.45123106241 -4.7460904121 -6.2330251183e-08 2.6898498535 -4.9537744522 0.34435835481
          -0.024224193767 -2.3501701355 0.14406217635 3.781036377 -7.7744503021 -8.7799747917e-08
          1.7559796572 -2.3368310928 0.59969991446 -0.66324520111 -2.4700014591 -3.6000091796e-08
          1.4022623301 -7.4256916046 -0.6627702713 8.5929164886 -8.4879026413 0.49161857367
          6.8607378006 -5.6440014839 1.1415128708 0 0 0
          9.9672422409 -11.27458477 -0.82502222061 0 0 0
          0 0 0 0.15714688599 -5.1891307831 -0.91166853905
          1.3528223038 -7.4796586037 -0.32732227445 10.019012451 -11.315728188 -0.4178352654
          7.3108515739 -10.915481567 -0.77922618389 6.0667095184 -8.0697917938 0.42445889115
          0.11428412795 -1.2107816935 -0.3213544488 0 0 0
          4.6432623863 -5.155503273 0.90413707495 -0.073141150177 -0.40860545635 0.045395672321
          0.11168436706 -5.0828828812 -0.35346329212 -0.42174994946 -0.72533130646 -0.066407687962
          -0.05269163847 -1.0498358011 -0.094717875123 0.46602335572 -4.7014627457 0.24270369112
          7.3527655602 -10.956686974 -0.39041694999 3.7868099213 -7.7434830666 0.36793977022
          1.3558524847 -7.5064864159 -1.0824702201e-07 10.022276878 -11.332947731 -7.6218242384e-08
          0.1027867049 -3.4853036404 -1.3462554216 -0.72868323326 -2.3621520996 0.11310297251
          0 0 0 4.9100465775 -10.638576508 -0.74183166027
          0.10620833188 -2.1481478214 0.26016098261 2.7520463467 -4.7951865196 0.6698153019
          0.1301445365 -5.1425271034 -6.9986306528e-08 7.3623356819 -10.973053932 -1.1125325727e-07
          -0.020579185337 -1.0815153122 -5.6273822935e-08 -0.0024229672272 -3.0961167812 -0.56292825937
          4.9169054031 -10.66492939 -0.37533834577 8.5419063568 -8.3864030838 0.96976298094
          0 0 0 0.78008830547 -7.8539471626 -0.87184870243
          6.0320324898 -7.9726977348 0.84187167883 0.019490554929 -3.0910923481 -5.3422972712e-09
          0.82111471891 -7.8058972359 -0.39919871092 4.92096138 -10.681103706 -1.4174933938e-07
          -0.38973706961 -0.54541653395 -0.19352927804 1.3528221846 -7.4796586037 0.32732203603
          2.4910900593 -10.387046814 -0.76813179255 10.019012451 -11.315728188 0.41783508658
          0.42467519641 -7.0893449783 -1.1540462971 0.5560144186 -4.5534992218 0.4548304081
          0 0 0 0.11168415099 -5.0828828812 0.35346311331
          2.4905796051 -10.389358521 -0.37287122011 -0.05269132182 -1.0498360395 0.094717919827
          0.66644597054 -7.1933317184 -0.55942392349 7.3527655602 -10.956686974 0.39041674137
          3.8146145344 -7.6628365517 0.7256424427 -0.56027328968 -2.251565218 0.27744054794
          11.200324059 -14.145908356 -0.725271523 0 0 0
          0.83505111933 -7.8268976212 -1.2701441676e-07 8.4969882965 -13.817983627 -0.71893763542
          11.244015694 -14.156157494 -0.36640867591 0 0 0
          -0.13374781609 -2.0807464123 -0.96437716484 8.5378627777 -13.830747604 -0.35961160064
          2.4960956573 -10.402090073 -1.6915056733e-07 -0.4477930367 -1.6612532139 -0.48771414161
          -0.0024217001628 -3.0961174965 0.56292837858 0.77988678217 -7.3842778206 1.6215852838e-07
          4.9169054031 -10.66492939 0.37533807755 5.9929757118 -13.544192314 -0.71690154076
          -0.1423291564 -5.1169528961 -1.8069460392 11.252937317 -14.162717819 -1.3095771578e-07
          0 0 0 -0.19290083647 -5.2090063095 -0.84593653679
          6.0247535706 -13.552443504 -0.36002913117 8.5493736267 -13.837990761 -1.7299942101e-07
          -0.3276437819 -1.5719780922 6.2604077478e-09 1.4022622108 -7.4256911278 0.66277003288
          1.3475476503 -10.468447685 -0.76435303688 9.9672422409 -11.274583817 0.8250220418
          0 0 0 -0.0064122416079 -8.4093885422 -0.87994068861
          0.8211144805 -7.8058972359 0.3991984725 0.15714652836 -5.1891307831 0.91166836023
          7.3108510971 -10.915481567 0.77922594547 0.11428471655 -1.2107820511 0.32135486603
          0.090563856065 -8.4039163589 -0.45153784752 1.4181334972 -10.479990005 -0.38000577688
          2.4905796051 -10.389358521 0.37287089229 0.6664468646 -7.1933341026 0.5594239831
          6.0334777832 -13.560441017 -2.0760651864e-07 -0.031424373388 -5.5848665237 3.7584953816e-07
          3.6885490417 -13.297519684 -0.73473316431 0.085387639701 -7.8676962852 -1.1919459105
          0.10278836638 -3.485304594 1.3462561369 11.244015694 -14.156157494 0.36640840769
          4.9100465775 -10.638575554 0.74183136225 0 0 0
          1.4426144361 -10.499357224 -2.0286562119e-07 0.1275665164 -8.4170150757 -1.5394893182e-07
          3.7239227295 -13.302811623 -0.35949349403 8.537861824 -13.830747604 0.35961124301
          0.029943006113 -7.7618689537 -0.57960349321 -0.4477930665 -1.6612536907 0.48771443963
          0.78008776903 -7.8539466858 0.87184840441 3.7306485176 -13.305880547 -2.3618493117e-07
          6.0247535706 -13.552442551 0.36002871394 -0.19290097058 -5.2090067863 0.84593689442
          0.059335563332 -7.7833414078 5.6664993053e-07 12.324625015 -16.946264267 -0.66729557514
          0 0 0 12.357528687 -16.949459076 -0.33536809683
          2.4910898209 -10.387046814 0.76813143492 9.6096801758 -16.629560471 -0.66616034508
          0.42467704415 -7.0893483162 1.1540459394 0.36799770594 -10.903289795 -0.75777417421
          1.9540485144 -4.7224516869 -2.0674362183 0.090564019978 -8.4039163589 0.4515375793
          1.4181332588 -10.479990005 0.38000535965 0 0 0
          9.6439285278 -16.637023926 -0.33240327239 0.41462174058 -10.914541245 -0.38840940595
          1.2360020876 -4.7137341499 -0.78198707104 1.9983284473 -13.178459167 -0.6431261301
          0.32577517629 -10.89501667 -1.6121771336 11.200324059 -14.145907402 0.72527128458
          0 0 0 8.4969882965 -13.817983627 0.71893727779
          12.368209839 -16.95252037 -2.0400861445e-07 0.45191308856 -10.855297089 -0.69428324699
          2.0452055931 -13.199826241 -0.33893835545 -0.13374817371 -2.0807468891 0.96437776089
          7.0503396988 -16.348884583 -0.65810996294 1.9228724241 -9.003988266 -2.198703289
          0 0 0 3.7239224911 -13.302811623 0.3594930172
          0.029942061752 -7.7618699074 0.57960408926 9.6544780731 -16.640930176 -2.5157885375e-07
          0.46209618449 -10.942371368 -2.3092887602e-07 7.0882220268 -16.358573914 -0.32901221514
          2.2930002213 -9.4966020584 -0.84370648861 1.1581561565 -4.7218379974 -3.5672663046e-08
          5.992975235 -13.544192314 0.71690112352 -0.14233008027 -5.1169538498 1.8069460392
          2.0624768734 -13.200739861 -2.6266135933e-07 0.4915382266 -10.847203255 -1.3101178808e-07
          1.3475472927 -10.468447685 0.76435261965 7.0977406502 -16.362482071 -2.9018298164e-07
          2.3078444004 -9.7179393768 3.011726335e-07 -0.0064121000469 -8.4093885422 0.8799405098
          12.357528687 -16.949459076 0.3353676796 4.7299151421 -16.113807678 -0.64429605007
          0 0 0 1.6626548767 -12.48634243 -1.0149593353
          4.771832943 -16.125858307 -0.31987151504 9.6439285278 -16.637023926 0.33240276575
          1.2360043526 -4.7137379646 0.78198701143 0.41462180018 -10.914541245 0.38840895891
          1.7069013119 -12.773878098 -0.49945351481 3.6885488033 -13.297519684 0.73473268747
          0.75749874115 -13.46496582 -0.79356169701 2.0452053547 -13.199826241 0.338937819
          0.08538646996 -7.8676967621 1.1919442415 0.45191219449 -10.855294228 0.69428277016
          0.023394132033 -12.288204193 -1.2010464668 0.81501168013 -13.442861557 -0.37045890093
          4.7795467377 -16.128221512 -3.2213878853e-07 7.08822155 -16.358573914 0.32901161909
          2.2929997444 -9.4966020584 0.84370678663 0.12368569523 -12.202037811 -0.52599775791
          1.7677556276 -12.678297043 -2.822538363e-07 13.400914192 -19.699260712 -0.6388079524
          0 0 0 0.31288188696 -6.6195588112 -1.9421139956
          0.85472536087 -13.464589119 -3.0921228245e-07 2.6779017448 -15.997746468 -0.61316615343
          10.672850609 -19.386413574 -0.62575691938 12.324625015 -16.946264267 0.66729515791
          0 0 0 0 0 0
          0.11854370683 -12.190005302 -3.1138890222e-07 0.99318492413 -13.250249863 -1.1661314964
          13.422855377 -19.70797348 -0.31904932857 2.714568615 -16.006567001 -0.30837514997
          10.696878433 -19.398900986 -0.31167811155 9.6096792221 -16.629560471 0.66615980864
          0.45165324211 -7.2937421799 -0.60976213217 0.36799767613 -10.903289795 0.75777375698
          1.9540518522 -4.7224578857 2.0674362183 1.1000132561 -13.335439682 -0.59823304415
          4.771832943 -16.125858307 0.31987085938 1.7069013119 -12.773877144 0.49945288897
          8.03901577 -19.106311798 -0.60472923517 1.9983279705 -13.178459167 0.64312559366
          0.32577398419 -10.895012856 1.6121761799 0 0 0
          1.2859179974 -11.481123924 -0.58208918571 13.432179451 -19.711368561 -2.9531588552e-07
          0.68036311865 -7.6191387177 4.514196803e-07 2.7307283878 -16.010654449 -3.6084560406e-07
          8.0689401627 -19.121343613 -0.2989616096 7.050339222 -16.348884583 0.65810936689
          10.704933167 -19.402927399 -3.470482568e-07 1.9228723049 -9.003988266 2.1987028122
          1.0853695869 -13.159373283 -6.7369825274e-07 1.4924767017 -11.887481689 -0.15200386941
          0.81501162052 -13.442861557 0.37045827508 0.12368528545 -12.202036858 0.52599710226
          0.088308036327 -14.239294052 -0.89199906588 8.0769720078 -19.123373032 -3.936204962e-07
          1.5141706467 -11.991176605 -2.7782991197e-07 0.12123441696 -14.17596817 -0.43608772755
          5.6165885925 -18.931793213 -0.56462365389 0 0 0
          1.5930070877 -13.255353928 -0.08532949537 13.422854424 -19.70797348 0.31904873252
          0.45165345073 -7.2937440872 0.6097625494 2.7145683765 -16.006567001 0.30837443471
          5.6457948685 -18.940032959 -0.28488403559 4.7299146652 -16.113807678 0.64429533482
          10.696878433 -19.398900986 0.3116774261 1.4559270144 -16.341352463 -0.74429237843
          0.56449574232 -14.65752697 -0.84260505438 1.6626548767 -12.486341476 1.0149588585
          1.5259724855 -13.397621155 -0.12629567087 1.1000131369 -13.335437775 0.59823197126
          1.493725419 -16.298002243 -0.3520616293 0.59110867977 -14.826407433 -0.48745775223
          0.11029553413 -14.149812698 -3.985532544e-07 0.75749856234 -13.464966774 0.79356104136
          8.0689401627 -19.121343613 0.29896083474 0.023393424228 -12.288203239 1.2010456324
          5.6520018578 -18.941123962 -4.3719708742e-07 1.4924763441 -11.887481689 0.15200334787
          1.5584167242 -13.386190414 -4.9104596656e-07 1.5082306862 -16.300378799 -4.3172050823e-07
          0.59965586662 -14.859731674 -6.0566964066e-07 1.2862358093 -14.587213516 -0.31192794442
          3.4062161446 -18.861387253 -0.57221138477 13.400913239 -19.699260712 0.63880735636
          0 0 0 0.1212342158 -14.17596817 0.43608695269
          0.31288152933 -6.619562149 1.9421135187 1.2199807167 -15.020573616 -0.228700459
          2.6779010296 -15.997746468 0.61316537857 10.672849655 -19.386411667 0.62575620413
          3.4297599792 -18.855024338 -0.28659978509 14.460352898 -22.454633713 -0.62686568499
          0 0 0 0.99318468571 -13.250248909 1.1661311388
          14.472857475 -22.471185684 -0.31198912859 0.66077691317 -11.046482086 -0.20486034453
          11.69644165 -22.146354675 -0.60120242834 5.6457948685 -18.940032959 0.28488314152
          0 0 0 1.5259724855 -13.397620201 0.1262948662
          11.710149765 -22.165119171 -0.29897046089 0.81233936548 -10.946856499 0.024823049083
          1.4937251806 -16.298002243 0.35206076503 0.59110850096 -14.826407433 0.48745661974
          8.0390148163 -19.106311798 0.60472840071 1.2209028006 -15.223075867 -6.6600608761e-07
          3.4402246475 -18.859741211 -4.95663528e-07 1.2859169245 -11.481122971 0.58208906651
          0.33880880475 -16.675668716 -0.81138509512 0.63877761364 -11.845079422 0.051261577755
          8.987071991 -21.867031097 -0.5670042038 -0.23012624681 -15.333553314 -0.86935514212
          14.479264259 -22.476213455 -4.0287974912e-07 0 0 0
          0.38097599149 -16.629943848 -0.41666820645 11.715526581 -22.169910431 -4.5627101031e-07
          0.94611769915 -10.32467556 -3.8757096377e-07 9.0039787292 -21.88483429 -0.28105762601
          0.67562049627 -12.009347916 0.03334653005 -0.15882749856 -15.388821602 -0.46923738718
          0.088307589293 -14.239294052 0.89199829102 0.39554226398 -16.618062973 -5.4646676517e-07
          0.69168567657 -15.251376152 -0.54686242342 1.2199807167 -15.020573616 0.2286990881
          1.9491378069 -19.056591034 -0.68878543377 9.0095853806 -21.887172699 -5.0904583304e-07
          5.6165881157 -18.931791306 0.56462275982 3.4297597408 -18.855024338 0.28659877181
          -0.099694639444 -15.421233177 -5.8941890302e-07 0.7006855011 -12.10054493 -4.5534389415e-07
          1.5930068493 -13.25535202 0.085328534245 14.472857475 -22.471185684 0.31198832393
          6.3146457672 -21.677022934 -0.5282933712 0.67827510834 -15.472281456 -0.29752084613
          0.71410220861 -13.070848465 0.11470779777 1.9832923412 -19.018154144 -0.33188763261
          1.4559265375 -16.341352463 0.74429148436 0.56449538469 -14.65752697 0.84260398149
          0 0 0 0.67956894636 -13.201224327 0.029235698283
          11.710148811 -22.165119171 0.29896956682 0.81233876944 -10.946856499 -0.024823416024
          6.3306837082 -21.681999207 -0.26814481616 0.72085386515 -15.566317558 -6.5777669533e-07
          1.9941235781 -19.023353577 -5.8320961216e-07 0.38097584248 -16.629943848 0.41666713357
          6.3379001617 -21.684207916 -5.8196218333e-07 0.6556841135 -13.236334801 -6.2081340957e-07
          9.0039777756 -21.88483429 0.28105661273 0.67562019825 -12.009347916 -0.033347383142
          -0.15882764757 -15.388821602 0.46923625469 1.2862356901 -14.587213516 0.31192669272
          3.4062156677 -18.861385345 0.57221031189 4.0405931473 -21.658197403 -0.56837618351
          14.460352898 -22.454633713 0.62686485052 0 0 0
          0.86926269531 -14.678090096 -0.071330063045 0.66077589989 -11.046482086 0.20486018062
          11.69644165 -22.146354675 0.60120153427 0.67827498913 -15.472281456 0.29751950502
          1.9832921028 -19.018154144 0.33188647032 4.0547380447 -21.641195297 -0.28034609556
          -0.47599574924 -17.314247131 -0.87770611048 0.81992208958 -15.049068451 -0.02619818598
          0.67956870794 -13.20122242 -0.029236894101 6.3306832314 -21.681999207 0.26814365387
          -0.40503150225 -17.315273285 -0.45380309224 0.89521044493 -19.498674393 -0.77529215813
          0.74294251204 -16.70602417 -0.79898357391 15.509885788 -25.248723984 -0.62305790186
          0 0 0 12.694097519 -24.946044922 -0.59088265896
          0.33880841732 -16.675668716 0.81138408184 0.63877683878 -11.845079422 -0.051262229681
          8.987071991 -21.867031097 0.56700313091 0.75185722113 -16.913311005 -0.41197493672
          0.96285068989 -19.481359482 -0.38647824526 -0.23012657464 -15.333553314 0.86935400963
          15.515632629 -25.270862579 -0.3101477921 0 0 0
          0.84202027321 -15.254826546 -6.8964686761e-07 4.0625910759 -21.643489838 -6.4921010789e-07
          -0.11235311627 -11.422124863 0.025454938412 12.700289726 -24.968599319 -0.29360124469
          0.0057813501917 -11.368498802 0.028971293941 -0.36137485504 -17.334064484 -6.7681492055e-07
          9.8977975845 -24.679491043 -0.55405068398 0.77960842848 -16.962587357 -8.1335178947e-07
          0.9949516654 -19.496189117 -6.9445906092e-07 15.519404411 -25.277572632 -5.2201806966e-07
          0 0 0 -0.12429517508 -11.926970482 0.16645047069
          9.9057855606 -24.697198868 -0.27594223619 12.703388214 -24.974544525 -5.7203385495e-07
          0.69168531895 -15.251376152 0.54686105251 1.9491373301 -19.056591034 0.68878430128
          -0.14261907339 -10.767323494 -4.2742163942e-07 -0.064305238426 -11.984523773 0.13894253969
          6.3146452904 -21.677022934 0.52829217911 0.71410119534 -13.070847511 -0.11470879614
          1.025638938 -16.091331482 -0.2304097414 2.5459041595 -21.814006805 -0.63936185837
          0.81992167234 -15.049068451 0.026196787134 4.0547380447 -21.641195297 0.28034481406
          1.0964428186 -16.318443298 -0.13029919565 2.574852705 -21.786077499 -0.3137922883
          -0.40503150225 -17.315273285 0.45380175114 9.909620285 -24.701889038 -6.2682369162e-07
          -0.18742766976 -12.113823891 -6.065460525e-07 7.0901985168 -24.459817886 -0.53794163465
          0.75185710192 -16.913311005 0.4119732976 0.96285051107 -19.481359482 0.38647684455
          15.515632629 -25.270862579 0.31014674902 0 0 0
          -0.10971762985 -12.631763458 0.37498152256 7.0976686478 -24.466371536 -0.26655450463
          12.700289726 -24.968599319 0.2936000824 -0.056099615991 -12.805999756 0.19140392542
          1.1484560966 -16.383796692 -9.6209805633e-07 2.5850667953 -21.785417557 -7.3292318348e-07
          0.0057804710232 -11.368498802 -0.028971709311 9.9057855606 -24.697198868 0.27594098449
          7.1036815643 -24.470655441 -6.8925612595e-07 -0.071954727173 -12.926534653 -8.4328740968e-07
          4.0405921936 -21.658197403 0.56837487221 -0.2312630415 -19.895692825 -0.83063876629
          -0.06430593133 -11.984523773 -0.13894338906 0.86926162243 -14.678090096 0.071328684688
          0.54590588808 -18.746482849 -0.80949568748 -0.16085420549 -19.907911301 -0.41278472543
          -0.47599589825 -17.314247131 0.87770473957 0.60628718138 -19.000961304 -0.41118717194
          1.0964425802 -16.318443298 0.1302973032 2.5748524666 -21.786077499 0.31379082799
          0.8952100873 -19.498674393 0.77529072762 0.7429420948 -16.706022263 0.79898190498
          0.099422104657 -14.36242485 0.26010131836 4.7140593529 -24.38127327 -0.57463783026
          15.509885788 -25.248723984 0.62305682898 0 0 0
          12.694096565 -24.946044922 0.59088146687 0.35488498211 -14.563259125 0.20734976232
          -0.12686899304 -19.931568146 -8.2094021536e-07 0.77068245411 -17.277439117 -0.23556548357
          1.3058680296 -22.115510941 -0.68105465174 4.7262835503 -24.366809845 -0.28218045831
          -0.11235446483 -11.422124863 -0.025455379859 0.64303147793 -19.10424614 -9.6195549304e-07
          7.0976686478 -24.466371536 0.26655313373 -0.056100480258 -12.805999756 -0.19140523672
          1.3544688225 -22.091665268 -0.34020245075 0.9615021348 -17.677070618 -0.14539638162
          9.8977966309 -24.679491043 0.55404943228 0.5571975112 -14.61687088 -9.8089037692e-07
          4.7355184555 -24.367546082 -7.893480074e-07 -0.12429652363 -11.926970482 -0.16645124555
          1.3702683449 -22.091787338 -8.3209101831e-07 16.554006577 -28.093839645 -0.62443751097
          0 0 0 1.0866550207 -17.824752808 -1.062235583e-06
          16.555740356 -28.12020874 -0.31115663052 0 0 0
          -0.16085423529 -19.907911301 0.4127830863 13.675609589 -27.79388237 -0.58738350868
          1.0256384611 -16.091331482 0.23040793836 2.5459036827 -21.814006805 0.63936042786
          -0.62133008242 -11.42987442 -0.011297333986 0.60628706217 -19.000961304 0.41118526459
          13.678013802 -27.81952095 -0.29247930646 -0.51114481688 -11.411582947 -0.00061510858359
          7.09019804 -24.459817886 0.53794026375 16.557935715 -28.128353119 -6.4818323153e-07
          0.35488465428 -14.563259125 -0.20735150576 10.796147346 -27.525733948 -0.55077880621
          -0.6223064661 -11.954444885 0.11006035656 4.7262830734 -24.366809845 0.28217890859
          0 0 0 3.0955586433 -24.437646866 -0.59987449646
          0.58335286379 -16.266191483 0.10101227462 -0.10971907526 -12.631763458 -0.37498247623
          -0.41215932369 -11.872071266 0.12992110848 10.801480293 -27.545995712 -0.27452039719
          13.679576874 -27.82692337 -6.9005005798e-07 1.3544687033 -22.091665268 0.34020078182
          0.70230954885 -16.462364197 0.073778763413 3.1188066006 -24.420753479 -0.29850372672
          0.96150201559 -17.677070618 0.14539425075 -0.52507740259 -10.603451729 -1.6697529759e-07
          0.26015666127 -21.000108719 -0.77550512552 10.803988457 -27.552120209 -7.343658126e-07
          -0.23126322031 -19.895692825 0.83063715696 -0.036156818271 -11.050764084 -4.9296414772e-07
          0.76038688421 -16.50028801 -1.0739772733e-06 0.32155674696 -21.118814468 -0.36764869094
          3.1282305717 -24.416440964 -8.693991731e-07 0.54590541124 -18.746482849 0.80949389935
          16.555740356 -28.120206833 0.31115531921 7.9337458611 -27.28935051 -0.53096139431
          0.66240131855 -19.471546173 -0.28671643138 0 0 0
          -0.55654639006 -12.397382736 0.46062582731 0.28516605496 -22.559713364 -0.77099734545
          0.10205706954 -11.860552788 0.36034113169 7.9411635399 -27.299884796 -0.26490467787
          13.678013802 -27.81952095 0.29247793555 0.83690130711 -19.803041458 -0.1086807996
          0.342340976 -22.550018311 -0.37087965012 -0.51114541292 -11.4115839 0.00061441311846
          0.099421061575 -14.36242485 -0.26010283828 4.714058876 -24.38127327 0.57463634014
          0.33061721921 -21.133119583 -1.0718082422e-06 0.7706822753 -17.277439117 0.23556344211
          1.3058675528 -22.115509033 0.68105304241 7.9437112808 -27.305860519 -7.8292123362e-07
          10.801480293 -27.545995712 0.27451890707 0.93865072727 -19.907611847 -1.1635567034e-06
          -0.41216033697 -11.87207222 -0.12992225587 0.6624494195 -11.152927399 -4.7812699222e-07
          0.70230948925 -16.462364197 -0.073780842125 3.1188063622 -24.420753479 0.29850199819
          0.35547155142 -22.549554825 -9.6477060652e-07 1.7439986467 -24.645597458 -0.61815470457
          0.73449343443 -17.166730881 0.23250737786 1.7728260756 -24.630010605 -0.31075245142
          0.79612058401 -17.583936691 0.13554438949 16.554004669 -28.093839645 0.62443619967
          0 0 0 0.32155680656 -21.118814468 0.36764657497
          0.68108165264 -12.734002113 0.9942253232 5.4624743462 -27.124105453 -0.57301968336
          0.65087449551 -12.971877098 0.51187103987 13.675609589 -27.79388237 0.58738213778
          -0.6213310957 -11.42987442 0.011296584271 5.4753608704 -27.1159935 -0.28017067909
          7.941163063 -27.299884796 0.26490312815 0.8369012475 -19.803041458 0.10867849737
          0.10205615312 -11.860552788 -0.3603425622 0.3423409164 -22.550018311 0.37087771297
          1.7794064283 -24.625452042 -9.5736106687e-07 0.8171287179 -17.739496231 -1.1572816447e-06
          10.796147346 -27.525733948 0.5507773757 -0.62230759859 -11.954443932 -0.1100616008
          3.0955581665 -24.437646866 0.59987282753 0.64691871405 -13.108016014 -8.0560806737e-07
          0.58335244656 -16.266191483 -0.10101424903 5.4843287468 -27.118211746 -8.8160373934e-07
          17.599994659 -30.995447159 -0.62938427925 0 0 0
          0.26015657187 -21.000106812 0.77550303936 1.7728259563 -24.630010605 0.31075057387
          0 0 0 14.65304184 -30.693187714 -0.58679288626
          0.69392722845 -21.686687469 -0.22475922108 0.7961204648 -17.583936691 -0.13554668427
          -0.91745346785 -9.358130455 1.7718182802 0.24246737361 -23.196969986 -0.66262859106
          17.599697113 -31.026317596 -0.31399315596 7.9337453842 -27.28935051 0.53095978498
          14.65383625 -30.723138809 -0.29271194339 -0.46284940839 -7.3956203461 0.87526661158
          0.66240125895 -19.471546173 0.2867141664 0.78198963404 -21.883106232 -0.099453486502
          -0.55654728413 -12.397381783 -0.46062761545 3.7288072109 -27.08508873 -0.58097928762
          0.65087383986 -12.971877098 -0.51187282801 0.28516581655 -22.559713364 0.7709954381
          0.6025646925 -15.605828285 0.70586675406 5.4753608704 -27.1159935 0.28016895056
          0.27341449261 -23.270372391 -0.3267532289 0.51194012165 -15.833299637 0.34367498755
          3.7468612194 -27.078174591 -0.28873121738 11.699813843 -30.417007446 -0.54555410147
          17.601221085 -31.036077499 -7.8159371242e-07 -0.2928262651 -10.84444046 1.0481672287
          0 0 0 11.705346107 -30.442539215 -0.2722030282
          -0.096014760435 -9.7392311096 0.5117560029 14.654763222 -30.732255936 -8.1150938058e-07
          0.71227586269 -24.998792648 -0.66183739901 0.83544635773 -21.890073776 -1.2264681573e-06
          0.26017981768 -23.248615265 -1.126075972e-06 0.67493021488 -19.747056961 0.27186444402
          -0.044768255204 -6.3530035019 -8.2650632294e-07 0.75434046984 -25.000795364 -0.32682558894
          3.7541079521 -27.074510574 -9.6801863947e-07 0.68658155203 -19.895154953 0.15690840781
          0.48701566458 -15.893383026 -1.1265407238e-06 1.7439982891 -24.645597458 0.61815279722
          11.707273483 -30.450435638 -8.4134046574e-07 0.73449289799 -17.166730881 -0.23250964284
          -0.015316680074 -9.4621601105 -1.0524100844e-06 8.759768486 -30.169494629 -0.5149077177
          17.599697113 -31.026317596 0.31399160624 0.75923937559 -25.000255585 -1.0655757023e-06
          0.62517040968 -10.177920341 1.1082435846 0.68108147383 -12.73400116 -0.99422740936
          0.69603836536 -19.912584305 -1.2798799389e-06 5.4624738693 -27.124105453 0.57301795483
          0 0 0 8.768201828 -30.187210083 -0.25822460651
          0.37056016922 -10.350292206 0.48256310821 14.65383625 -30.723138809 0.29271033406
          0.78198957443 -21.883106232 0.099451050162 0.27341461182 -23.270372391 0.32675096393
          -0.4628495276 -7.3956208229 -0.87526714802 3.746860981 -27.078172684 0.28872931004
          0.51193982363 -15.833300591 -0.34367716312 11.705346107 -30.442539215 0.27220135927
          8.7699279785 -30.195034027 -8.7622538558e-07 2.2029476166 -27.155323029 -0.57693231106
          0.71238636971 -16.871845245 0.5736426115 0.23450569808 -10.373555183 -9.1421486559e-07
          -0.096014454961 -9.7392301559 -0.51175779104 0.5916467309 -17.222120285 0.30026832223
          0.75434035063 -25.000795364 0.32682347298 2.2250375748 -27.152252197 -0.29271477461
          0.68658143282 -19.895154953 -0.156910941 6.3453607559 -29.974617004 -0.56571209431
          17.599992752 -30.995447159 0.62938272953 0 0 0
          0.71388107538 -11.70983696 1.0889418125 6.3604307175 -29.971471786 -0.27463033795
          14.65304184 -30.693185806 0.58679121733 0.48759102821 -11.865868568 0.56275862455