<?xml version="1.0"?>
<VTKFile type="UnstructuredGrid" version="0.1" byte_order="LittleEndian" header_type="UInt32" compressor="vtkZLibDataCompressor">
  <UnstructuredGrid>
    <Piece NumberOfPoints="6405" NumberOfCells="4800">
      <PointData>
        <DataArray type="Float32" Name="DISPLACEMENT" NumberOfComponents="3" ComponentName0="X-DISPLACEMENT" ComponentName1="Y-DISPLACEMENT" ComponentName2="Z-DISPLACEMENT" format="ascii" RangeMin="0" RangeMax="234.73451002">
          0 0 0 0 0 0
          1.869391799 -1.1271293163 -0.86752200127 0 0 0
          1.2342315912 -0.6527338028 -0.68552327156 0 0 0
          1.7027096748 -1.2377624512 -0.3456735611 1.0723508596 -0.74426692724 -0.27994954586
          0 0 0 3.361027956 -2.0289516449 -0.89581733942
          0 0 0 3.3089220524 -2.1595752239 -0.46294525266
          2.4835765362 -1.6452573538 -0.76145386696 0 0 0
          0 0 0 1.7074429989 -1.2767218351 -1.7278379971e-07
          0.92417258024 -0.4198705852 -0.5406678915 1.0677591562 -0.76333576441 3.5367488493e-08
          2.4274945259 -1.7481333017 -0.3892583549 0.79383826256 -0.5062751174 -0.22040830553
          3.2703337669 -2.1965053082 -8.102570348e-08 1.8542006016 -1.3140417337 -0.61596620083
          0 0 0 2.393851757 -1.7831763029 2.6671511932e-07
          1.7962944508 -1.4126995802 -0.31798005104 0 0 0
          4.7271714211 -3.1765463352 -0.8466103673 0 0 0
          0.78938508034 -0.52288961411 1.9415506358e-07 0 0 0
          0 0 0 1.7027102709 -1.237762928 0.34567332268
          3.6644413471 -2.8052430153 -0.73286163807 4.7380242348 -3.2692587376 -0.43229836226
          0.63169515133 -0.25227701664 -0.37355732918 1.0723513365 -0.74426704645 0.27994966507
          3.6736283302 -2.8923888206 -0.37378078699 0.53498339653 -0.34297579527 -0.15634818375
          1.7672085762 -1.4436659813 5.2506794646e-07 3.3089232445 -2.1595761776 0.46294516325
          0 0 0 0 0 0
          1.3003491163 -1.0731381178 -0.46921113133 2.8190591335 -2.4973311424 -0.62223601341
          4.7252426147 -3.3036746979 2.1970804198e-07 2.4274954796 -1.748134017 0.38925898075
          2.8082237244 -2.5815398693 -0.31895813346 0.79383867979 -0.50627464056 0.22040863335
          3.6643507481 -2.9223470688 7.8243118651e-07 1.2460236549 -1.1793899536 -0.24548523128
          0.5344274044 -0.35800108314 2.8721032663e-07 0 0 0
          6.005510807 -4.4663391113 -0.7653721571 0 0 0
          4.7930116653 -4.1241030693 -0.68111908436 1.7962956429 -1.412700057 0.31798097491
          6.0369844437 -4.5332994461 -0.38781431317 1.8693927526 -1.1271300316 0.86752206087
          0 0 0 0 0 0
          1.2320033312 -1.2156949043 5.2938128192e-07 2.7965576649 -2.6104469299 1.0949387388e-06
          0.25688198209 -0.13393794 -0.19719848037 4.8206543922 -4.1906151772 -0.34384390712
          1.2342324257 -0.65273404121 0.68552350998 2.0332295895 -2.2438523769 -0.51235365868
          0 0 0 4.7380256653 -3.2692599297 0.43229883909
          0.17634133995 -0.23016779125 -0.098596520722 2.0205657482 -2.3450255394 -0.26446267962
          3.6736295223 -2.8923902512 0.37378239632 0.53498262167 -0.34297433496 0.15634833276
          3.7612855434 -3.8412077427 -0.59816145897 0.55695486069 -0.91555416584 -0.3178178668
          6.0375084877 -4.5572953224 7.7686866007e-07 3.3610298634 -2.0289530754 0.89581739902
          0 0 0 0 0 0
          3.7766301632 -3.90645051 -0.30061379075 2.4835782051 -1.6452585459 0.76145458221
          4.8243017197 -4.2143044472 1.5788092469e-06 0.54573112726 -1.026025176 -0.18331004679
          0.92417347431 -0.41986986995 0.54066812992 0.17248632014 -0.24408787489 2.9133653356e-07
          2.0201542377 -2.3843209743 1.3596517192e-06 2.808224678 -2.5815415382 0.31896045804
          1.2460236549 -1.1793884039 0.24548585713 3.7770104408 -3.9278550148 2.3177046842e-06
          1.8542027473 -1.3140423298 0.6159670949 0.57675850391 -1.0677547455 6.1639656224e-07
          2.8325510025 -3.6340575218 -0.51207995415 6.0369858742 -4.5333013535 0.38781586289
          4.7271738052 -3.1765491962 0.84661096334 0 0 0
          7.1892623901 -5.861887455 -0.69811320305 0 0 0
          0 0 0 1.0075045824 -2.048977375 -0.40122029185
          2.8144328594 -3.6906819344 -0.25885280967 7.2204174995 -5.9114356041 -0.35120439529
          5.8576993942 -5.5424256325 -0.63425606489 4.8206553459 -4.1906170845 0.34384709597
          -0.036045700312 -0.22323910892 -0.16764360666 0 0 0
          3.6644437313 -2.8052456379 0.73286342621 0.6316947937 -0.25227451324 0.37355685234
          1.1044324636 -2.1469323635 -0.22359284759 0.17633867264 -0.23016653955 0.098595701158
          -0.021065814421 -0.27631363273 -0.11648157239 2.0205688477 -2.345028162 0.26446509361
          5.8870334625 -5.5941376686 -0.31774410605 3.7766313553 -3.9064528942 0.30061846972
          2.8093242645 -3.7067382336 2.7541682357e-06 7.2261142731 -5.9294424057 1.5111547782e-06
          -0.10630732775 -0.86773002148 -0.22962869704 0.54571986198 -1.0260215998 0.18330858648
          0 0 0 4.6807122231 -5.2753677368 -0.56780451536
          1.3003509045 -1.0731375217 0.46921148896 2.8190619946 -2.4973342419 0.62223881483
          1.20446527 -2.1916048527 -2.8726685031e-08 5.8947563171 -5.6123962402 2.4789565032e-06
          0.04387774691 -0.32181218266 -2.140022616e-06 0.13484634459 -1.0085275173 -0.1481949091
          4.6979832649 -5.327439785 -0.28330790997 6.0055136681 -4.466342926 0.76537370682
          0 0 0 1.6527945995 -3.3887598515 -0.44544330239
          4.7930145264 -4.124106884 0.68112236261 0.23426569998 -1.068048954 -6.1602445385e-06
          1.8718806505 -3.4992136955 -0.20217861235 4.7021799088 -5.3437991142 3.6536662265e-06
          0.25687894225 -0.13393419981 0.19719521701 2.814432621 -3.6906864643 0.25885954499
          3.5798180103 -5.0836243629 -0.49758288264 7.2204189301 -5.9114375114 0.35120737553
          -0.1723370254 -1.8214702606 -0.068287417293 2.0332322121 -2.2438576221 0.51235616207
          0 0 0 1.1044174433 -2.1469297409 0.22359493375
          3.6056387424 -5.1175432205 -0.23886840045 -0.021068431437 -0.27631422877 0.11647266895
          0.46234330535 -1.9863179922 -0.14632387459 5.887034893 -5.594139576 0.31774905324
          3.7612884045 -3.8412122726 0.59816646576 0.55695134401 -0.91555136442 0.31781443954
          8.2914075851 -7.3285965919 -0.65001654625 0 0 0
          1.9945044518 -3.538629055 2.1729806576e-06 6.865134716 -7.0273528099 -0.59674727917
          8.3167123795 -7.3694939613 -0.32599049807 0 0 0
          0.19974498451 -0.48655259609 -0.21209311485 6.8890070915 -7.0706996918 -0.29792997241
          3.6196756363 -5.1158576012 5.4795291362e-06 0.15287587047 -0.50216162205 -0.080232381821
          0.13483409584 -1.0085196495 0.14817738533 0.54583376646 -2.0277478695 -6.9630073085e-06
          4.6979842186 -5.3274421692 0.28331515193 5.5587215424 -6.773086071 -0.54025411606
          0.329536587 -1.1650635004 -0.26992371678 8.3236074448 -7.3841562271 2.2296364932e-06
          0 0 0 0.31105569005 -1.177251339 -0.12089201063
          5.5791611671 -6.8159108162 -0.26996213198 6.8963565826 -7.0857539177 3.2444074805e-06
          0.158982113 -0.51745170355 -5.3910339375e-06 2.8325533867 -3.6340639591 0.51208800077
          2.6855347157 -4.9490604401 -0.39673608541 7.1892647743 -5.8618912697 0.69811606407
          0 0 0 0.60123211145 -3.0294690132 -0.30719578266
          1.8718899488 -3.4992249012 0.20218631625 1.0075136423 -2.0489859581 0.40122914314
          5.8577017784 -5.542429924 0.63426101208 -0.036051236093 -0.22323161364 0.16763173044
          1.1104309559 -3.3639481068 -0.11050252616 2.6265170574 -4.9377713203 -0.16055098176
          3.6056396961 -5.1175441742 0.23887905478 0.46234321594 -1.9862948656 0.14631541073
          5.5868105888 -6.8299307823 4.4822877499e-06 0.32885652781 -1.2080129385 -7.6900087151e-06
          4.3632421494 -6.5605640411 -0.48268431425 0.58693778515 -2.0448391438 -0.32727384567
          -0.10630038381 -0.86770886183 0.22959907353 8.3167133331 -7.3694958687 0.32599490881
          4.6807146072 -5.2753720284 0.56781166792 0 0 0
          2.578397274 -4.8956708908 9.3398430181e-06 1.0723911524 -3.4413487911 9.4350098152e-06
          4.3752174377 -6.6092858315 -0.23974449933 6.8890080452 -7.0707015991 0.29793643951
          0.53320860863 -2.0812585354 -0.11272831261 0.15288248658 -0.50215917826 0.080222256482
          1.6528081894 -3.3887705803 0.44545674324 4.3805317879 -6.6256165504 6.2110375438e-06
          5.5791621208 -6.8159127235 0.26997101307 0.31107702851 -1.1772381067 0.12087788433
          0.56914073229 -2.1514801979 -9.2489472081e-07 9.3357524872 -8.8527393341 -0.61992740631
          0 0 0 9.3543872833 -8.8917007446 -0.30995845795
          3.5798215866 -5.0836277008 0.49759271741 7.8206486702 -8.5659685135 -0.56804490089
          -0.17223119736 -1.8214557171 0.068323969841 2.1662328243 -5.0514302254 -0.1937123239
          0.20577391982 -0.57092219591 -0.1655818224 1.1105145216 -3.3639912605 0.11050964147
          2.6265208721 -4.9377689362 0.16056922078 0 0 0
          7.8395204544 -8.6063652039 -0.28345820308 1.5506501198 -4.8078875542 -0.14743620157
          0.15925826132 -0.59334206581 -0.070891797543 3.3110601902 -6.3883414268 -0.41761448979
          0.8665099144 -3.1647071838 -0.29414021969 8.2914094925 -7.3286004066 0.65002083778
          0 0 0 6.8651366234 -7.0273571014 0.59675365686
          9.3607082367 -8.9051122665 2.8079232379e-06 0.81922608614 -3.3142445087 -0.10148926079
          3.2720189095 -6.4530777931 -0.22352805734 0.19975605607 -0.48654904962 0.21208772063
          6.398378849 -8.3263082504 -0.51565217972 0.36969029903 -1.2839753628 -0.22207508981
          0 0 0 4.3752183914 -6.609287262 0.23975658417
          0.53325265646 -2.0812408924 0.11273159832 7.8458757401 -8.6200733185 3.7480012907e-06
          1.3290137053 -4.7280182838 1.6216319636e-05 6.4163990021 -8.3668622971 -0.25724750757
          0.33587384224 -1.3193038702 -0.112721093 0.15732161701 -0.59627956152 -3.7096510823e-06
          5.5587234497 -6.7730898857 0.54026275873 0.32957777381 -1.1650513411 0.26992321014
          3.2427661419 -6.4739012718 8.2984270193e-06 0.84804046154 -3.3948962688 2.017177394e-05
          2.6855356693 -4.9490613937 0.39675205946 6.4218802452 -8.3813610077 4.8195674935e-06
          0.32209512591 -1.328586936 -2.8124668461e-06 0.60237789154 -3.0296096802 0.30753332376
          9.354388237 -8.891702652 0.30996403098 5.0889816284 -8.146402359 -0.46923202276
          0 0 0 0.51998281479 -2.195078373 -0.24350549281
          5.0996265411 -8.1866664886 -0.2363602519 7.8395214081 -8.6063661575 0.28346565366
          0.15926490724 -0.59333741665 0.070885807276 1.5506596565 -4.8078866005 0.14746269584
          0.5052511096 -2.2474393845 -0.12341230363 4.3632440567 -6.5605683327 0.48269596696
          2.1395289898 -6.2338328362 -0.41960215569 3.2720196247 -6.4530792236 0.22354380786
          0.58704334497 -2.0447463989 0.32729911804 0.8192833066 -3.3142938614 0.10155392438
          1.142005682 -4.7332115173 -0.33436906338 1.9986501932 -6.2800951004 -0.25129884481
          5.1005768776 -8.205075264 5.9801254793e-06 6.4163994789 -8.3668642044 0.25725710392
          0.33588629961 -1.3192923069 0.11271803826 1.2346920967 -4.7721819878 -0.16538892686
          0.49292606115 -2.2645990849 4.7358557822e-06 10.348296165 -10.440010071 -0.60195893049
          0 0 0 0.16128891706 -0.6036272049 -0.12186034769
          1.9124891758 -6.2878079414 9.1547944976e-06 3.865814209 -8.0307950974 -0.44362950325
          8.7367801666 -10.157343864 -0.54680621624 9.3357534409 -8.8527421951 0.61993288994
          0 0 0 0 0 0
          1.2485550642 -4.7808952332 2.6205947506e-05 0.69202524424 -3.3630974293 -0.25457435846
          10.361468315 -10.48075676 -0.30036303401 3.8607923985 -8.0756673813 -0.2270463258
          8.750787735 -10.199329376 -0.27211657166 7.8206501007 -8.5659723282 0.56805229187
          0.12555940449 -0.63273251057 -0.051012996584 2.1661844254 -5.0514101982 0.1937482059
          0.20578446984 -0.57091760635 0.1655805409 0.69746220112 -3.4100191593 -0.12138335407
          5.099627018 -8.186668396 0.23637212813 0.50526022911 -2.2474317551 0.12342049181
          7.1886973381 -9.9318799973 -0.48788911104 3.3110587597 -6.3883476257 0.41762939095
          0.86645954847 -3.164765358 0.29413762689 0 0 0
          0.28531447053 -1.3622536659 -0.15976803005 10.36654377 -10.494274139 3.2302611999e-06
          0.12327337265 -0.63910514116 -1.4759220903e-06 3.8505768776 -8.1009111404 6.9244274528e-06
          7.2043390274 -9.9725046158 -0.24319000542 6.3983802795 -8.3263120651 0.51566165686
          8.7552280426 -10.212821007 4.0595195969e-06 0.36971646547 -1.2839545012 0.22207613289
          0.6963326931 -3.4360332489 1.941114715e-05 0.26071572304 -1.404543519 -0.081838749349
          1.9986484051 -6.2800970078 0.25131455064 1.2347459793 -4.7722220421 0.16544753313
          1.6728342772 -6.2888636589 -0.34855690598 7.2079291344 -9.985663414 4.9205777941e-06
          0.25183713436 -1.4168065786 3.6186440866e-07 1.6565909386 -6.2985281944 -0.17106789351
          5.7495746613 -9.7739849091 -0.43727275729 0 0 0
          0.39728376269 -2.3082864285 -0.17989659309 10.361469269 -10.480758667 0.30036947131
          0.12556250393 -0.63272851706 0.051011066884 3.8607916832 -8.0756702423 0.22706000507
          5.7650771141 -9.8102798462 -0.2190644294 5.0889816284 -8.1464071274 0.46924370527
          8.7507886887 -10.199331284 0.27212464809 2.7595200539 -7.9642238617 -0.40317580104
          0.92302167416 -4.7383003235 -0.24951885641 0.51999205351 -2.1950678825 0.24351736903
          0.38519695401 -2.3565275669 -0.09064296633 0.69747048616 -3.410033226 0.12141124904
          2.7595214844 -8.0233392715 -0.19194583595 0.91966748238 -4.7918200493 -0.12577363849
          1.6459004879 -6.3159332275 1.8003873265e-05 2.1395180225 -6.2338395119 0.41961690784
          7.2043390274 -9.9725065231 0.24319982529 1.1421304941 -4.7333340645 0.33441096544
          5.7644071579 -9.82442379 5.7669458329e-06 0.26071986556 -1.4045379162 0.08184004575
          0.3801715374 -2.3718481064 5.6138333093e-06 2.7416777611 -8.0408830643 7.7244039858e-06
          0.92508912086 -4.8105034828 2.4094410037e-05 0.51402544975 -3.4616913795 -0.18504582345
          4.456964016 -9.6429109573 -0.39816612005 10.348297119 -10.440013885 0.60196530819
          0 0 0 1.6566060781 -6.2985358238 0.17110267282
          0.16129502654 -0.60362178087 0.12186104804 0.50895041227 -3.5126001835 -0.093659721315
          3.8658123016 -8.0307998657 0.44364315271 8.7367811203 -10.157347679 0.54681426287
          4.4669237137 -9.6821069717 -0.20223562419 11.345986366 -12.110361099 -0.5911861062
          0 0 0 0.69205671549 -3.3631112576 0.2546043992
          11.354498863 -12.153467178 -0.2939888835 0.096688918769 -0.62198215723 -0.0715758726
          9.636920929 -11.82639122 -0.52956444025 5.7650771141 -9.8102817535 0.219075948
          0 0 0 0.38520038128 -2.3565249443 0.090654782951
          9.6456136703 -11.870189667 -0.26412060857 0.075794585049 -0.65418475866 -0.029798381031
          2.7595198154 -8.0233421326 0.19196134806 0.91968208551 -4.7918467522 0.12581831217
          7.1886978149 -9.9318828583 0.4878988564 0.50654494762 -3.5281641483 1.2431396499e-05
          4.4629678726 -9.6973485947 6.5390663622e-06 0.28532257676 -1.3622466326 0.15977232158
          1.9714810848 -8.0351190567 -0.16002468765 0.17343455553 -1.4085575342 -0.093405894935
          7.9421854019 -11.577377319 -0.46647909284 1.1379774809 -6.2966279984 -0.2312373817
          11.357533455 -12.166899681 3.5712967019e-06 0 0 0
          1.9700659513 -8.1510534286 -0.10036720335 9.6482648849 -11.883623123 4.278670076e-06
          0.074366502464 -0.66154962778 -1.5419854549e-07 7.9516744614 -11.6206007 -0.22968031466
          0.1586458683 -1.453572154 -0.047826051712 1.155046463 -6.3500766754 -0.11010976136
          1.6728531122 -6.2888622284 0.34858220816 1.9614213705 -8.1622247696 8.7682510639e-06
          0.63837909698 -4.8169102669 -0.18156300485 0.50895380974 -3.5126047134 0.093685038388
          3.2816901207 -9.4689512253 -0.33021193743 7.9536952972 -11.631520271 4.9683012548e-06
          5.7495746613 -9.7739887238 0.43728423119 4.4669232368 -9.6821088791 0.20224872231
          1.1517137289 -6.3668198586 1.9793998945e-05 0.15315163136 -1.4668699503 1.7750259076e-06
          0.3972954452 -2.3082818985 0.17990897596 11.354498863 -12.153469086 0.29399600625
          6.3430256844 -11.450659752 -0.38855284452 0.64185768366 -4.8661103249 -0.089737385511
          0.24238705635 -2.3756556511 -0.10577352345 3.2732994556 -9.5324621201 -0.1692378372
          2.7595171928 -7.9642281532 0.4031919241 0.92303133011 -4.7383303642 0.24955129623
          0 0 0 0.23328490555 -2.4269833565 -0.054344791919
          9.6456136703 -11.870191574 0.26412916183 0.075795874 -0.65418249369 0.029798548669
          6.3529071808 -11.48227787 -0.2008240819 0.64054310322 -4.8832983971 1.7561385903e-05
          3.2662510872 -9.5450315475 7.3133523983e-06 1.9700654745 -8.1510562897 0.10038472712
          6.3525986671 -11.493977547 5.6432882047e-06 0.22948153317 -2.442378521 5.5620603234e-06
          7.9516749382 -11.620602608 0.22969025373 0.15864783525 -1.4535694122 0.047830164433
          1.1550613642 -6.3500914574 0.11014666408 0.51403188705 -3.4616963863 0.18506667018
          4.4569625854 -9.642914772 0.39817929268 5.0259685516 -11.366260529 -0.3781465292
          11.34598732 -12.11036396 0.59119319916 0 0 0
          0.30771625042 -3.5387685299 -0.11287797987 0.096692018211 -0.6219792366 0.071577720344
          9.6369218826 -11.826395035 0.52957302332 0.64186239243 -4.8661198616 0.089770138264
          3.273298502 -9.5324640274 0.16925254464 5.0231375694 -11.391069412 -0.19189627469
          1.4017277956 -7.9696850777 -0.16008457541 0.30257198215 -3.5901772976 -0.057265851647
          0.233286798 -2.426981926 0.054355889559 6.3529067039 -11.482279778 0.20083537698
          1.3842937946 -8.0255432129 -0.11243540794 1.9917652607 -9.3322000504 -0.18629679084
          0.7894089222 -6.3374881744 -0.16811928153 12.333792686 -13.887145996 -0.58117860556
          0 0 0 10.524172783 -13.605150223 -0.52251541615
          1.9714796543 -8.0351238251 0.1600420028 0.17344026268 -1.4085536003 0.093411058187
          7.9421858788 -11.57738018 0.46648901701 0.78945541382 -6.3818426132 -0.084673546255
          1.9659215212 -9.4175310135 -0.11806945503 1.1380012035 -6.2966537476 0.23126931489
          12.338657379 -13.928295135 -0.28913557529 0 0 0
          0.30011069775 -3.6065862179 9.9573489933e-06 5.0254001617 -11.405086517 6.3288011916e-06
          0.025913124904 -0.62951767445 -0.018908763304 10.527521133 -13.646814346 -0.26046782732
          0.020249992609 -0.66296583414 -0.0076996367425 1.4186600447 -8.0335025787 1.4849966647e-05
          8.7404756546 -13.343485832 -0.45774784684 0.79150933027 -6.3971395493 1.7296722945e-05
          1.9703125954 -9.4322500229 8.18819899e-06 12.339461327 -13.941060066 3.9145770643e-06
          0 0 0 0.048857536167 -1.4266797304 -0.025058098137
          8.7384309769 -13.385032654 -0.22782211006 10.529093742 -13.659090996 4.4922321649e-06
          0.63838934898 -4.816921711 0.18159094453 3.2816882133 -9.46895504 0.33022668958
          0.019771846011 -0.67072695494 4.3377872316e-07 0.043702021241 -1.4737797976 -0.012733117677
          6.3430256844 -11.450662613 0.38856416941 0.2423928082 -2.3756527901 0.10578476638
          0.37423947453 -4.8880224228 -0.11604452878 3.8334863186 -11.267346382 -0.35950130224
          0.30257374048 -3.5901782513 0.057284984738 5.0231370926 -11.39107132 0.19190891087
          0.3707305789 -4.9356098175 -0.058543823659 3.8150508404 -11.295167923 -0.18297708035
          1.3842988014 -8.0255470276 0.11246217042 8.7395381927 -13.395041466 5.0221692618e-06
          0.041739419103 -1.4878630638 2.1066455247e-06 6.7941846848 -13.111384392 -0.37913089991
          0.78946071863 -6.3818511963 0.084706783295 1.9659208059 -9.4175319672 0.1180858016
          12.338657379 -13.928297043 0.28914341331 0 0 0
          0.072303265333 -2.4060659409 -0.031317424029 6.7917203903 -13.144837379 -0.19816933572
          10.527521133 -13.6468153 0.26047682762 0.066272355616 -2.4599373341 -0.016062723473
          0.36931830645 -4.9514608383 1.291926219e-05 3.8164567947 -11.308573723 6.9368347795e-06
          0.02025077492 -0.66296458244 0.0077007659711 8.7384319305 -13.385033607 0.22783218324
          6.7962465286 -13.15777874 5.5701543715e-06 0.064230963588 -2.4766185284 4.6757691052e-06
          5.0259671211 -11.36626339 0.37815913558 1.6569586992 -9.7870798111 -0.46458482742
          0.043703313917 -1.4737781286 0.012737537734 0.30772230029 -3.5387678146 0.11289604008
          0.9563959837 -7.971906662 -0.17968760431 1.5822728872 -9.665810585 -0.10485463589
          1.4017318487 -7.9696903229 0.16010731459 0.96112644672 -8.00806427 -0.086005464196
          0.37073260546 -4.9356126785 0.058568894863 3.8150501251 -11.295168877 0.18299093843
          1.9917635918 -9.3322038651 0.18631312251 0.78941398859 -6.3374977112 0.16814747453
          0.092546977103 -3.5842394829 -0.040841735899 5.525785923 -13.0995121 -0.42313218117
          12.33379364 -13.887147903 0.58118647337 0 0 0
          10.524173737 -13.60515213 0.52252447605 0.084300644696 -3.6378924847 -0.021182682365
          1.7373764515 -9.7451314926 4.928449016e-06 0.44621866941 -6.3879494667 -0.1184759438
          2.3691496849 -11.110966682 -0.34924054146 5.5251345634 -13.118126869 -0.2015517652
          0.025915538892 -0.6295157671 0.018910821527 0.96095567942 -8.016242981 1.3823690097e-05
          6.7917203903 -13.144838333 0.19818051159 0.066273741424 -2.459936142 0.016072085127
          2.342900753 -11.12954998 -0.1676440686 0.44455271959 -6.4293880463 -0.059357605875
          8.7404766083 -13.34348774 0.45775800943 0.081949532032 -3.6554477215 7.4097861216e-06
          5.5270271301 -13.130479813 6.1391297095e-06 0.048861388117 -1.4266769886 0.025063104928
          2.3541913033 -11.142918587 7.569401987e-06 13.298424721 -15.768857002 -0.57002568245
          0 0 0 0.44353458285 -6.4441013336 1.3602700164e-05
          13.301427841 -15.803517342 -0.28440305591 0 0 0
          1.5822719336 -9.665813446 0.10487201065 11.405233383 -15.496184349 -0.52333837748
          0.37424349785 -4.8880238533 0.11606702954 3.8334846497 -11.267349243 0.35951516032
          -0.048726711422 -0.62972587347 0.034712322056 0.96113014221 -8.0080680847 0.086032383144
          11.405902863 -15.530405998 -0.26067605615 -0.038323339075 -0.66258466244 0.014903848991
          6.7941846848 -13.111386299 0.37914222479 13.30092144 -15.814740181 4.3207687668e-06
          0.084301948547 -3.6378920078 0.021197307855 9.5166196823 -15.258020401 -0.47655427456
          -0.085115142167 -1.419578433 0.0459972471 5.5251336098 -13.118127823 0.20156399906
          0 0 0 4.3203291893 -13.075527191 -0.40880796313
          0.10058636218 -4.9491958618 -0.054072771221 0.072307810187 -2.4060628414 0.031326748431
          -0.078982494771 -1.4681901932 0.024178383872 9.5095424652 -15.289103508 -0.23800449073
          11.406420708 -15.541244507 4.7583457672e-06 2.3429000378 -11.129550934 0.16765917838
          0.091902643442 -4.9974265099 -0.02808339335 4.3228898048 -13.092748642 -0.20205850899
          0.44455477595 -6.4293909073 0.059383809566 -0.037748336792 -0.67005807161 5.3294189684e-07
          1.161128521 -9.6552772522 -0.16801205277 9.5096902847 -15.30082798 5.1552246987e-06
          1.6569555998 -9.7870826721 0.46460139751 -0.076843515038 -1.4823218584 1.7988288619e-06
          0.089604377747 -5.0144181252 9.4208362498e-06 1.1734639406 -9.6875200272 -0.12363480777
          4.3237886429 -13.103551865 6.5654830905e-06 0.95639938116 -7.9719128609 0.17971196771
          13.301428795 -15.803518295 0.28441169858 7.5854558945 -15.028430939 -0.45373383164
          0.53619426489 -7.9859700203 -0.11892156303 0 0 0
          -0.10913127661 -2.3968026638 0.047755170614 1.9231722355 -11.361345291 -0.51166641712
          -0.11140216887 -2.4550032616 0.024595664814 7.5742397308 -15.057265282 -0.21783809364
          11.405902863 -15.530406952 0.26068559289 0.53282666206 -8.0236406326 -0.062801703811
          2.0352110863 -11.366175652 -0.16513490677 -0.038322776556 -0.66258388758 -0.014902649447
          0.092550911009 -3.5842366219 0.040855553001 5.5257844925 -13.099514008 0.42314422131
          1.1565891504 -9.6701803207 1.1165893739e-05 0.44622159004 -6.3879513741 0.1184996441
          2.3691482544 -11.110969543 0.34925562143 7.5769562721 -15.06810379 5.5530845202e-06
          9.5095434189 -15.289104462 0.23801483214 0.53262746334 -8.0366315842 1.2230143511e-05
          -0.078981496394 -1.4681890011 -0.024174634367 -0.11162821203 -2.4724266529 3.5309456052e-06
          0.091903798282 -4.9974265099 0.028101781383 4.322889328 -13.092749596 0.20207159221
          2.064234972 -11.420275688 7.4302092798e-06 3.0917277336 -13.064896584 -0.4121516645
          0.096080362797 -6.4539051056 -0.066472150385 3.1019029617 -13.094851494 -0.18548507988
          0.089149199426 -6.4962687492 -0.034933000803 13.298425674 -15.76885891 0.57003432512
          0 0 0 1.1734651327 -9.6875219345 0.1236550808
          -0.13480387628 -3.5936830044 0.035005621612 6.2958240509 -15.031258583 -0.38319078088
          -0.14556545019 -3.6534001827 0.016785427928 11.405234337 -15.496186256 0.52334797382
          -0.048724889755 -0.62972450256 -0.034710500389 6.3200469017 -15.039945602 -0.18463018537
          7.5742406845 -15.057266235 0.21784925461 0.53282815218 -8.02364254 0.06282543391
          -0.11140103638 -2.4550018311 -0.024588596076 2.0352091789 -11.366175652 0.16514989734
          3.1008489132 -13.099825859 6.8452436608e-06 0.087383277714 -6.5125784874 1.0059951819e-05
          9.516620636 -15.258022308 0.47656470537 -0.085112184286 -1.4195760489 -0.045993145555
          4.3203277588 -13.075529099 0.40882092714 -0.14694830775 -3.6730847359 5.2493924159e-06
          0.10058926791 -4.9491930008 0.054089915007 6.3101038933 -15.040891647 5.9563703871e-06
          14.237959862 -17.728414536 -0.55881512165 0 0 0
          1.1611278057 -9.6552791595 0.16803100705 3.1019022465 -13.094852448 0.18549874425
          0 0 0 12.272212982 -17.462120056 -0.52223920822
          0.64311379194 -9.6386537552 -0.12633016706 0.089150130749 -6.4962687492 0.03495266661
          -0.12267534435 -0.63001716137 0.084640242159 1.3633300066 -11.338830948 -0.17312465608
          14.24064064 -17.755844116 -0.27922657132 7.5854568481 -15.028432846 0.45374512672
          12.27323246 -17.488843918 -0.26113030314 -0.095167145133 -0.65691363811 0.036431446671
          0.53619474173 -7.985970974 0.11894319206 0.63574874401 -9.6817893982 -0.062137875706
          -0.10912799835 -2.3967995644 -0.047748066485 4.808163166 -14.856575012 -0.35621646047
          -0.14556445181 -3.6533989906 -0.016775049269 1.9231690168 -11.361345291 0.51168131828
          -0.18348814547 -5.0009622574 0.0084508042783 6.320045948 -15.039946556 0.18464206159
          1.3468389511 -11.398415565 -0.11252747476 -0.19943346083 -5.0550999641 0.0013810158707
          4.8290410042 -14.867542267 -0.18314507604 10.318743706 -17.214639664 -0.48950114846
          14.239811897 -17.76486969 4.8172223615e-06 -0.22073115408 -1.390245676 0.12078794837
          0 0 0 10.314126015 -17.239839554 -0.24445295334
          -0.19886593521 -1.4366149902 0.062652938068 12.273168564 -17.497852325 5.1004067245e-06
          2.2704043388 -13.175979614 -0.20911358297 0.63758474588 -9.6980829239 9.9493099697e-06
          1.3560583591 -11.403884888 8.183637874e-06 0.090830676258 -8.0414733887 -0.074649088085
          -0.093136079609 -0.66323131323 3.9506184635e-07 2.2796077728 -13.257320404 -0.13071572781
          4.8284072876 -14.871098518 6.1537334659e-06 0.086380138993 -8.0821399689 -0.038835160434
          -0.20166535676 -5.0759525299 6.4760292844e-06 3.0917263031 -13.064897537 0.41216525435
          10.313162804 -17.248567581 5.3479207054e-06 0.096081636846 -6.4539022446 0.066490374506
          -0.19314050674 -1.4488869905 1.2639109173e-06 8.3499078751 -16.981363297 -0.45774537325
          14.240641594 -17.755846024 0.27923622727 2.2733085155 -13.254372597 6.9359316512e-06
          -0.30010670424 -2.3440084457 0.13963162899 -0.13480098546 -3.5936791897 -0.034995544702
          0.085051223636 -8.0987176895 9.438050256e-06 6.2958221436 -15.031259537 0.3832025528
          0 0 0 8.3446388245 -17.004081726 -0.22932225466
          -0.29472437501 -2.4082009792 0.071654908359 12.273233414 -17.488845825 0.26114052534
          0.63574928045 -9.6817893982 0.062157478184 1.3468385935 -11.398415565 0.11254360527
          -0.095166705549 -0.65691310167 -0.036430556327 4.8290400505 -14.867543221 0.18315735459
          -0.19943262637 -5.0550990105 -0.0013683204306 10.314126968 -17.239839554 0.24446368217
          8.3427801132 -17.012817383 5.5929954215e-06 3.6247828007 -14.70108223 -0.32624909282
          -0.27457293868 -6.548746109 -0.020418992266 -0.29074555635 -2.4258215427 2.3678912839e-06
          -0.19886513054 -1.4366141558 -0.062650293112 -0.28550335765 -6.5958991051 -0.012671533041
          2.2796070576 -13.257320404 0.13072961569 3.6309392452 -14.738006592 -0.1680701673
          0.086380675435 -8.0821399689 0.038853622973 6.7194361687 -16.844215393 -0.22087076306
          14.237960815 -17.728416443 0.55882483721 0 0 0
          -0.37852451205 -3.562081337 0.12335287035 6.740568161 -16.791395187 -0.14158461988
          12.272213936 -17.462121964 0.52224946022 -0.3931568265 -3.6314485073 0.061872493476