<?xml version="1.0"?>
<VTKFile type="UnstructuredGrid" version="0.1" byte_order="LittleEndian" header_type="UInt32" compressor="vtkZLibDataCompressor">
  <UnstructuredGrid>
    <Piece NumberOfPoints="6405" NumberOfCells="4800">
      <PointData>
        <DataArray type="Float32" Name="DISPLACEMENT" NumberOfComponents="3" ComponentName0="X-DISPLACEMENT" ComponentName1="Y-DISPLACEMENT" ComponentName2="Z-DISPLACEMENT" format="ascii" RangeMin="0" RangeMax="236.10279412">
          0 0 0 0 0 0
          1.9251996279 -1.1618151665 -0.89069527388 0 0 0
          1.2588483095 -0.67212837934 -0.69565457106 0 0 0
          1.7559542656 -1.2796322107 -0.35419735312 1.0947366953 -0.77007204294 -0.28364950418
          0 0 0 3.4592838287 -2.1192235947 -0.91406869888
          0 0 0 3.4076323509 -2.255633831 -0.47181692719
          2.5340588093 -1.7252911329 -0.77124369144 0 0 0
          0 0 0 1.7610647678 -1.3200895786 2.7466432684e-08
          0.92901104689 -0.42831531167 -0.53637057543 1.0899147987 -0.789675951 1.3122987141e-08
          2.4772472382 -1.8333871365 -0.39398139715 0.79754889011 -0.52128702402 -0.2173499018
          3.3676438332 -2.2938349247 1.0313237908e-07 1.8732486963 -1.3820285797 -0.61414331198
          0 0 0 2.4427206516 -1.8693348169 7.8505102863e-08
          1.810259819 -1.4856131077 -0.31562337279 0 0 0
          4.8498802185 -3.3447628021 -0.85567128658 0 0 0
          0.79178601503 -0.5371696949 6.6410295041e-09 0 0 0
          0 0 0 1.755954504 -1.2796320915 0.35419744253
          3.7338578701 -2.9694850445 -0.74205082655 4.86221838 -3.4373223782 -0.43692958355
          0.6089271903 -0.25102421641 -0.34984731674 1.0947369337 -0.77007186413 0.28364953399
          3.7427117825 -3.0563929081 -0.37830075622 0.50952512026 -0.34898453951 -0.14313779771
          1.7795394659 -1.5159935951 4.9008754388e-08 3.4076328278 -2.255633831 0.47181719542
          0 0 0 0 0 0
          1.274772644 -1.1313773394 -0.44955477118 2.8553528786 -2.6582701206 -0.63040333986
          4.8481163979 -3.4716784954 2.4307337299e-07 2.477247715 -1.833386898 0.39398160577
          2.8371977806 -2.7417678833 -0.32269838452 0.79754894972 -0.52128666639 0.2173499018
          3.733061552 -3.0860793591 2.4083499284e-07 1.2035843134 -1.2375041246 -0.23153373599
          0.50272661448 -0.36107394099 -1.4767467249e-08 0 0 0
          6.1317033768 -4.7103681564 -0.76525759697 0 0 0
          4.8722572327 -4.3710241318 -0.69004005194 1.8102601767 -1.4856127501 0.3156234324
          6.1646223068 -4.7713384628 -0.38826742768 1.9251999855 -1.1618150473 0.89069545269
          0 0 0 0 0 0
          1.1808562279 -1.2662354708 -5.8663204072e-08 2.8235378265 -2.7690403461 1.5545914778e-07
          0.19012701511 -0.13509561121 -0.14424644411 4.9001016617 -4.4313526154 -0.34852722287
          1.2588486671 -0.67212802172 0.69565463066 2.0181708336 -2.4024326801 -0.51817214489
          0 0 0 4.8622188568 -3.4373223782 0.43693011999
          0.10068548471 -0.24645680189 -0.071510560811 1.9848558903 -2.495664835 -0.26529175043
          3.7427124977 -3.0563929081 0.37830126286 0.50952488184 -0.34898400307 0.1431376487
          3.8084573746 -4.0963654518 -0.61867934465 0.4577049613 -0.97153902054 -0.27623990178
          6.1644644737 -4.7936682701 5.1898842912e-07 3.4592847824 -2.1192235947 0.91406905651
          0 0 0 0 0 0
          3.8182587624 -4.1538534164 -0.31143245101 2.5340595245 -1.7252907753 0.77124392986
          4.9034123421 -4.4534254074 5.6544223526e-07 0.38212886453 -1.0787165165 -0.15335077047
          0.9290111661 -0.42831462622 0.53637057543 0.083405353129 -0.26060274243 -1.5296060951e-07
          1.9781364202 -2.5319185257 1.7285362475e-08 2.8371982574 -2.7417676449 0.32269874215
          1.2035839558 -1.2375029325 0.23153345287 3.8189947605 -4.1742663383 4.901312991e-07
          1.8732492924 -1.3820277452 0.61414331198 0.36611154675 -1.1085039377 -1.0484829716e-07
          2.8401443958 -3.9008955956 -0.55149132013 6.1646237373 -4.7713389397 0.38826850057
          4.849881649 -3.3447628021 0.85567194223 0 0 0
          7.3036971092 -6.1581511497 -0.69287067652 0 0 0
          0 0 0 0.92639440298 -2.2109267712 -0.4111237824
          2.8101928234 -3.951593399 -0.28349804878 7.3359780312 -6.1988186836 -0.34924244881
          5.9397559166 -5.8441119194 -0.64231604338 4.9001021385 -4.4313526154 0.34852838516
          -0.16574802995 -0.21427875757 -0.037057764828 0 0 0
          3.7338590622 -2.9694850445 0.7420514822 0.60892689228 -0.25102314353 0.34984695911
          0.90422773361 -2.2869980335 -0.22365751863 0.10068513453 -0.24645622075 0.071509994566
          -0.2148489356 -0.30979821086 -0.04540194571 1.9848567247 -2.4956643581 0.26529157162
          5.9700293541 -5.886882782 -0.32207009196 3.818259716 -4.1538534164 0.31143349409
          2.792548418 -3.9691662788 1.8550404945e-07 7.3416919708 -6.2143626213 9.999030226e-07
          -0.28887811303 -0.88957554102 -0.15352633595 0.38212662935 -1.0787154436 0.15334972739
          0 0 0 4.7345385551 -5.5872969627 -0.59230220318
          1.274772644 -1.1313759089 0.44955432415 2.8553540707 -2.6582698822 0.6304038167
          0.92707538605 -2.3153979778 -5.6368971713e-08 5.9781322479 -5.9028401375 1.0911201116e-06
          -0.20167948306 -0.35265660286 3.1368929285e-06 -0.19408383965 -0.96780270338 -0.13591514528
          4.7524237633 -5.629404068 -0.29726427794 6.1317052841 -4.7103686333 0.76525878906
          0 0 0 1.6176787615 -3.6435186863 -0.51390379667
          4.87225914 -4.3710246086 0.69004136324 -0.080093935132 -1.0055695772 4.8536003305e-06
          1.715041399 -3.7509791851 -0.24181085825 4.7553834915 -5.6454277039 1.0909901675e-06
          0.19012631476 -0.13509431481 0.14424537122 2.8101933002 -3.9515943527 0.28349888325
          3.6055445671 -5.4120984077 -0.54890835285 7.3359789848 -6.1988191605 0.34924447536
          -0.63438987732 -1.962671876 -0.071360349655 2.0181713104 -2.4024317265 0.51817172766
          0 0 0 0.90422153473 -2.2869944572 0.22365655005
          3.6289031506 -5.4389266968 -0.2673265934 -0.21486054361 -0.30979844928 0.045398514718
          0.55087852478 -2.1919295788 -0.33341655135 5.9700303078 -5.8868832588 0.32207229733
          3.8084592819 -4.0963659286 0.61868059635 0.45770376921 -0.97153681517 0.27623790503
          8.3908500671 -7.6449389458 -0.64478236437 0 0 0
          1.791536212 -3.8186388016 -1.422771561e-06 6.9496655464 -7.3465223312 -0.60285514593
          8.4167098999 -7.6779813766 -0.32383841276 0 0 0
          0.17609848082 -0.54324996471 -0.19792295992 6.9748878479 -7.3822793961 -0.301250875
          3.6450483799 -5.4413781166 1.0740913012e-06 0.1309363246 -0.5466144681 -0.071738831699
          -0.19414497912 -0.96780240536 0.13589817286 0.79337954521 -2.2272677422 3.6415211071e-05
          4.7524247169 -5.6294045448 0.29726654291 5.6231956482 -7.0936284065 -0.55852156878
          0.26344391704 -1.2316491604 -0.32017454505 8.424407959 -7.690369606 1.6910687464e-06
          0 0 0 0.28768351674 -1.1937958002 -0.15365615487
          5.6482720375 -7.1294398308 -0.28020137548 6.9825377464 -7.3953795433 1.8049313439e-06
          0.14534328878 -0.56595051289 7.0336199087e-07 2.8401460648 -3.9008960724 0.55149275064
          2.7261376381 -5.2978086472 -0.49984499812 7.3036994934 -6.1581516266 0.69287282228
          0 0 0 -0.79840749502 -3.2596681118 0.16673628986
          1.7150411606 -3.7509827614 0.24181014299 0.92639523745 -2.2109267712 0.41112357378
          5.9397583008 -5.8441123962 0.64231836796 -0.16576628387 -0.21427033842 0.037041086704
          1.6299690008 -3.8489727974 -0.12752096355 2.6544656754 -5.2680845261 -0.21718332171
          3.6289041042 -5.4389271736 0.26732882857 0.55074602365 -2.1918511391 0.33343404531
          5.6566376686 -7.1421771049 1.8916939553e-06 0.32530549169 -1.1979854107 2.2176907351e-06
          4.4210157394 -6.8744430542 -0.51550328732 0.50980246067 -2.2482364178 -0.37003570795
          -0.28890001774 -0.88955706358 0.15348218381 8.4167108536 -7.6779818535 0.32384181023
          4.7345409393 -5.5872974396 0.59230470657 0 0 0
          2.5517873764 -5.1942820549 1.5425047195e-06 1.5519602299 -3.9884471893 2.1329410629e-06
          4.4402432442 -6.9198393822 -0.26015424728 6.9748892784 -7.3822798729 0.30125451088
          0.49392029643 -2.1821837425 -0.12015683204 0.13093054295 -0.5466157198 0.071737602353
          1.6176797152 -3.6435182095 0.51390510798 4.4428191185 -6.940369606 2.0988534288e-06
          5.648273468 -7.1294403076 0.28020519018 0.28767752647 -1.1937930584 0.15366002917
          0.57217228413 -2.2694597244 -5.4220176935e-06 9.4273376465 -9.1641817093 -0.61838847399
          0 0 0 9.4458656311 -9.1986341476 -0.30929306149
          3.6055469513 -5.4120998383 0.54891103506 7.9112648964 -8.8762359619 -0.57254993916
          -0.63438200951 -1.9627101421 0.071392193437 2.2997443676 -5.4336519241 -0.31552508473
          0.21344321966 -0.62133693695 -0.17638023198 1.6300565004 -3.8490338326 0.12751305103
          2.6544675827 -5.2680850029 0.21718688309 0 0 0
          7.9310669899 -8.9126024246 -0.28582131863 1.9692127705 -5.2123746872 -0.24636343122
          0.16651797295 -0.63325458765 -0.079655885696 3.3888547421 -6.6691670418 -0.45830535889
          1.0380731821 -3.3531324863 -0.33761098981 8.3908529282 -7.6449394226 0.64478588104
          0 0 0 6.9496679306 -7.3465228081 0.60285890102
          9.4530992508 -9.2106809616 2.5504730274e-06 0.82687181234 -3.5457234383 -0.049437612295
          3.4132795334 -6.7466263771 -0.25324714184 0.17609354854 -0.54325181246 0.19791911542
          6.4823532104 -8.6298332214 -0.52494430542 0.38093084097 -1.3658714294 -0.24927212298
          0 0 0 4.4402441978 -6.919839859 0.26015847921
          0.49392315745 -2.1821570396 0.12017136067 7.937921524 -8.92507267 2.6442792205e-06
          1.6292105913 -4.9397044182 8.3274408098e-06 6.5046873093 -8.6676177979 -0.26212471724
          0.3467887342 -1.3882523775 -0.13113461435 0.16825193167 -0.63163626194 9.2342867219e-07
          5.6231980324 -7.0936288834 0.55852550268 0.26343134046 -1.2316459417 0.32017940283
          3.4243321419 -6.78515625 2.6127474939e-06 0.98711740971 -3.7298605442 6.4344476414e-06
          2.7261404991 -5.2978110313 0.49984917045 6.5108394623 -8.6812467575 2.745817028e-06
          0.33625271916 -1.3861782551 1.3990475054e-06 -0.79847252369 -3.2596623898 -0.16670538485
          9.4458665848 -9.1986351013 0.30929818749 5.1820011139 -8.4351062775 -0.47860080004
          0 0 0 0.55580770969 -2.3193736076 -0.26824429631
          5.2035017014 -8.4728212357 -0.23999972641 7.9310688972 -8.9126024246 0.28582662344
          0.16651771963 -0.63325506449 0.079657673836 1.9692248106 -5.2123746872 0.24637416005
          0.53600430489 -2.3750269413 -0.14166976511 4.4210186005 -6.8744440079 0.51550757885
          2.2625458241 -6.4841828346 -0.38198056817 3.4132819176 -6.7466263771 0.25325220823
          0.50978243351 -2.2482316494 0.37005466223 0.82684612274 -3.5457191467 0.049450531602
          1.1920689344 -4.9080729485 -0.2955468595 2.2884404659 -6.5902080536 -0.24681904912
          5.2075567245 -8.4862852097 2.9101397558e-06 6.5046887398 -8.6676177979 0.26213023067
          0.34678858519 -1.3882489204 0.13113865256 1.3720402718 -5.0954608917 -0.13049013913
          0.51928663254 -2.3810639381 2.8809461128e-06 10.442474365 -10.735713005 -0.60521203279
          0 0 0 0.17554928362 -0.6452626586 -0.13347356021
          2.3714659214 -6.6692852974 2.8667548122e-06 3.9995660782 -8.3073015213 -0.43153762817
          8.8368062973 -10.449475288 -0.55102586746 9.4273414612 -9.1641817093 0.6183937192
          0 0 0 0 0 0
          1.4807676077 -5.1227655411 3.5047935398e-06 0.73525929451 -3.5574097633 -0.2539088726
          10.455117226 -10.77549839 -0.30184319615 4.0269207954 -8.3415155411 -0.21346867085
          8.8510065079 -10.490729332 -0.27411940694 7.9112682343 -8.8762359619 0.57255536318
          0.13615453243 -0.67297375202 -0.057398401201 2.2997462749 -5.433655262 0.31553369761
          0.21344329417 -0.62133866549 0.17638149858 0.76915258169 -3.6079940796 -0.12277878076
          5.2035031319 -8.4728212357 0.24000553787 0.53600013256 -2.3750238419 0.14167492092
          7.2904400826 -10.217817307 -0.49200972915 3.3888576031 -6.6691679955 0.45831033587
          1.0380768776 -3.3531372547 0.33761507273 0 0 0
          0.31416460872 -1.4398856163 -0.17740003765 10.46092701 -10.788625717 3.5234811548e-06
          0.13410159945 -0.67765539885 7.3841255244e-07 4.0422749519 -8.3526096344 3.1051952192e-06
          7.3089318275 -10.258030891 -0.24478694797 6.4823565483 -8.6298332214 0.52494990826
          8.8557329178 -10.503881454 3.5587627281e-06 0.3809311986 -1.3658694029 0.24927666783
          0.75504499674 -3.6360414028 2.9354348499e-06 0.28622764349 -1.4836940765 -0.092535659671
          2.2884440422 -6.5902080536 0.24682450294 1.3720464706 -5.0954728127 0.13049660623
          1.8715364933 -6.5989732742 -0.35518056154 7.3136100769 -10.2703619 3.5986690818e-06
          0.27676206827 -1.4940305948 1.4275724425e-06 1.853902936 -6.5989112854 -0.14980588853
          5.8662853241 -10.05446434 -0.43863931298 0 0 0
          0.43788853288 -2.4343435764 -0.19815325737 10.455119133 -10.77549839 0.3018502593
          0.13615486026 -0.67297363281 0.057399895042 4.0269227028 -8.3415155411 0.21347478032
          5.888381958 -10.089341164 -0.21771980822 5.1820039749 -8.4351062775 0.47860664129
          8.8510084152 -10.490729332 0.2741265595 2.8742175102 -8.2383947372 -0.40977066755
          1.0411840677 -4.9844665527 -0.25055894256 0.55580717325 -2.3193647861 0.2682530582
          0.42745321989 -2.4828484058 -0.10014032573 0.76915246248 -3.6079909801 0.12278579921
          2.8845903873 -8.2653017044 -0.17865806818 1.0284202099 -5.0403232574 -0.11358191818
          1.815610528 -6.593328476 3.8790744838e-06 2.2625498772 -6.4841833115 0.38198548555
          7.3089337349 -10.258030891 0.24479417503 1.192066431 -4.9080719948 0.29555359483
          5.8920717239 -10.101067543 3.6617452679e-06 0.2862277627 -1.4836932421 0.092538677156
          0.42168176174 -2.4981207848 2.0727127321e-06 2.8818011284 -8.2607936859 3.2461889532e-06
          1.0362414122 -5.0836114883 3.9828769332e-06 0.58151775599 -3.6455302238 -0.20096479356
          4.5973272324 -9.9330263138 -0.39910849929 10.442477226 -10.735713005 0.60521918535
          0 0 0 1.8539049625 -6.5989112854 0.14981250465
          0.17555053532 -0.6452627182 0.13347515464 0.5732331872 -3.6955189705 -0.10004078597
          3.9995689392 -8.3073015213 0.43154364824 8.836810112 -10.449475288 0.55103307962
          4.6147170067 -9.968957901 -0.19935883582 11.451436043 -12.39132309 -0.59833669662
          0 0 0 0.7352540493 -3.5574054718 0.25391826034
          11.459376335 -12.436035156 -0.29730141163 0.11036123335 -0.65909254551 -0.080577135086
          9.7474622726 -12.10274601 -0.53411692381 5.8883838654 -10.08934021 0.21772712469
          0 0 0 0.42745354772 -2.4828467369 0.10014487058
          9.7560272217 -12.148046494 -0.26625460386 0.0866073668 -0.69268190861 -0.033911526203
          2.8845930099 -8.2653017044 0.17866432667 1.0284172297 -5.0403227806 0.11358890682
          7.2904434204 -10.217817307 0.49201700091 0.57122808695 -3.7126429081 2.798248488e-06
          4.6184101105 -9.9844474792 3.7360039187e-06 0.31416639686 -1.439883709 0.17740345001
          2.2014608383 -8.3574266434 -0.2493583411 0.20005895197 -1.4859524965 -0.1056490466
          8.0549039841 -11.848874092 -0.46817234159 1.2731646299 -6.5692005157 -0.24297319353
          11.462791443 -12.44983387 4.5824285735e-06 0 0 0
          2.2359287739 -8.431394577 -0.15598593652 9.758813858 -12.16174984 4.5350111577e-06
          0.085011683404 -0.70008009672 5.3123898169e-07 8.0660352707 -11.893485069 -0.23003229499
          0.18348108232 -1.5331341028 -0.054318923503 1.3030304909 -6.628054142 -0.12122319639
          1.8715379238 -6.5989751816 0.3551864922 2.2348721027 -8.4201002121 3.2662208014e-06
          0.72689175606 -5.0564217567 -0.1958835423 0.57323241234 -3.69551754 0.10004658252
          3.4606847763 -9.7813205719 -0.3531293571 8.0688238144 -11.904392242 4.4758567128e-06
          5.866288662 -10.054463387 0.43864664435 4.614718914 -9.968957901 0.19936625659
          1.3181878328 -6.6419553757 3.3631929455e-06 0.1772300154 -1.5467811823 1.2276972257e-06
          0.43788915873 -2.4343402386 0.19815790653 11.459378242 -12.436035156 0.29731059074
          6.4660172462 -11.72005558 -0.38712540269 0.73268544674 -5.1038217545 -0.096289739013
          0.28444758058 -2.5001709461 -0.11978618056 3.4727704525 -9.8427467346 -0.17886972427
          2.8742218018 -8.2383956909 0.40977653861 1.0411832333 -4.9844675064 0.25056517124
          0 0 0 0.27377507091 -2.553768158 -0.061686769128
          9.756029129 -12.148046494 0.26626369357 0.086607679725 -0.6926817894 0.033912628889
          6.4788103104 -11.752624512 -0.19970077276 0.73228991032 -5.1206827164 3.2124582958e-06
          3.4785220623 -9.8639163971 3.7622896798e-06 2.2359294891 -8.431394577 0.1559920907
          6.4799180031 -11.764630318 4.4093303586e-06 0.2693696022 -2.5694935322 1.9568847165e-06
          8.066037178 -11.893485069 0.23004126549 0.18348175287 -1.533133626 0.054321445525
          1.3030312061 -6.6280560493 0.12122974545 0.58151781559 -3.6455273628 0.20097081363
          4.5973305702 -9.9330253601 0.39911577106 5.1726126671 -11.630008698 -0.37701737881
          11.451439857 -12.39132309 0.59834599495 0 0 0
          0.36664521694 -3.7196013927 -0.12820968032 0.110362418 -0.65909224749 0.080578520894
          9.7474660873 -12.10274601 0.53412610292 0.73268532753 -5.1038208008 0.096296444535
          3.472771883 -9.8427457809 0.17887711525 5.1740231514 -11.656149864 -0.19062434137
          1.5699385405 -8.2730455399 -0.19374313951 0.3607133925 -3.7716083527 -0.065220177174
          0.27377557755 -2.5537674427 0.061690710485 6.4788122177 -11.752624512 0.19970960915
          1.5644211769 -8.3136634827 -0.1160409078 2.2372722626 -9.6522951126 -0.20369753242
          0.8982886672 -6.6205534935 -0.18756528199 12.455507278 -14.161322594 -0.59046798944
          0 0 0 10.645672798 -13.874292374 -0.52744376659
          2.2014627457 -8.3574256897 0.24936372042 0.20006065071 -1.4859515429 0.10565177351
          8.0549077988 -11.848873138 0.46818140149 0.89878290892 -6.6621627808 -0.092399537563
          2.2597486973 -9.7538251877 -0.13028943539 1.2731643915 -6.5692014694 0.24298000336
          12.460021973 -14.205381393 -0.29354578257 0 0 0
          0.35762792826 -3.7879230976 2.6758111744e-06 5.1785411835 -11.670239449 4.3516160986e-06
          0.035720843822 -0.66525059938 -0.025597404689 10.648849487 -13.918726921 -0.26284560561
          0.028215516359 -0.70020711422 -0.010473841801 1.5830839872 -8.328494072 3.458602805e-06
          8.8609199524 -13.607169151 -0.457821697 0.90055602789 -6.6796331406 3.6312840166e-06
          2.3028526306 -9.7936935425 3.5475047753e-06 12.460938454 -14.218922615 5.7337952057e-06
          0 0 0 0.068665966392 -1.5024591684 -0.033563993871
          8.8593130112 -13.651432991 -0.2277507633 10.650477409 -13.931671143 5.5902746681e-06
          0.72689116001 -5.0564208031 0.19589047134 3.4606873989 -9.7813196182 0.35313636065
          0.027611717582 -0.70838272572 4.568893246e-07 0.062138259411 -1.5521297455 -0.017113398761
          6.4660210609 -11.720054626 0.38713431358 0.2844492197 -2.5001692772 0.11979043484
          0.4515362978 -5.1301188469 -0.13432739675 4.005012989 -11.519558907 -0.34752133489
          0.36071383953 -3.7716076374 0.065225563943 5.1740245819 -11.656149864 0.19063302875
          0.44554018974 -5.1763768196 -0.067765727639 3.9988443851 -11.553068161 -0.17675869167
          1.5644203424 -8.3136634827 0.11604788154 8.8606948853 -13.66195488 5.4083725445e-06
          0.059693280607 -1.5670096874 1.1471165635e-06 6.9170360565 -13.368244171 -0.37388044596
          0.89878255129 -6.6621627808 0.092406645417 2.2597491741 -9.753824234 0.13029646873
          12.46002388 -14.20538044 0.29355728626 0 0 0
          0.10426540673 -2.5284867287 -0.041239541024 6.9161515236 -13.403964043 -0.1962376982
          10.648851395 -13.918725967 0.26285681129 0.096768960357 -2.5854327679 -0.02114918828
          0.44351696968 -5.1920256615 3.3405833619e-06 4.004576683 -11.565085411 4.1930484258e-06
          0.028215857223 -0.70020693541 0.01047479175 8.8593158722 -13.651432991 0.22776164114
          6.9213576317 -13.417818069 5.2281548051e-06 0.094030186534 -2.6029880047 1.9403332772e-06
          5.1726155281 -11.630008698 0.37702602148 1.8447672129 -9.9660253525 -0.33781322837
          0.06213889271 -1.5521293879 0.017115768045 0.36664637923 -3.7196002007 0.12821525335
          1.0647903681 -8.2726068497 -0.18785260618 1.8133172989 -9.9311819077 -0.10262160003
          1.569938302 -8.2730464935 0.1937482059 1.0733027458 -8.3055095673 -0.092786930501
          0.44554036856 -5.1763763428 0.067772395909 3.9988458157 -11.553067207 0.17676706612
          2.2372736931 -9.6522932053 0.20370440185 0.89828872681 -6.6205539703 0.18757213652
          0.13959689438 -3.7636384964 -0.053249202669 5.6882977486 -13.343720436 -0.42198258638
          12.455512047 -14.161322594 0.59047955275 0 0 0
          10.645677567 -13.874292374 0.52745509148 0.12845829129 -3.8198313713 -0.027390489355
          1.9168897867 -9.8900489807 2.0066449906e-06 0.53140562773 -6.6893172264 -0.13915593922
          2.5734746456 -11.370038033 -0.31438347697 5.6888585091 -13.366370201 -0.19915384054
          0.035721950233 -0.66525030136 0.025598652661 1.0825842619 -8.3113574982 3.5988311993e-06
          6.9161534309 -13.403964043 0.19624820352 0.096769705415 -2.585432291 0.021153122187
          2.5666337013 -11.401568413 -0.14942741394 0.52883344889 -6.7277626991 -0.070340387523
          8.8609247208 -13.607168198 0.45783269405 0.1250846982 -3.837872982 2.7596868222e-06
          5.6922674179 -13.379332542 4.9943300837e-06 0.068667694926 -1.5024585724 0.033566564322
          2.5892026424 -11.415426254 3.9660940274e-06 13.437810898 -16.046766281 -0.57978004217
          0 0 0 0.52857333422 -6.7410821915 3.8180687625e-06
          13.440772057 -16.084554672 -0.28912648559 0 0 0
          1.8133126497 -9.9311857224 0.10262407362 11.537366867 -15.769581795 -0.528624475
          0.45153719187 -5.1301183701 0.13433408737 4.0050158501 -11.519557953 0.34752973914
          -0.043909270316 -0.6667137146 0.029893768951 1.0733026266 -8.3055105209 0.092794001102
          11.537912369 -15.806769371 -0.26329553127 -0.034440912306 -0.70070666075 0.012835491449
          6.9170403481 -13.368243217 0.37389108539 13.440223694 -16.096681595 6.9977686508e-06
          0.12845894694 -3.8198308945 0.027396025136 9.6430253983 -15.528133392 -0.47767689824
          -0.076775617898 -1.4947550297 0.040968187153 5.6888599396 -13.366370201 0.19916382432
          0 0 0 4.4895496368 -13.3133955 -0.39453715086
          0.16293917596 -5.1970052719 -0.071322932839 0.10426730663 -2.528485775 0.04124359414
          -0.070501126349 -1.5461059809 0.021586176008 9.6356878281 -15.562171936 -0.23839598894
          11.538431168 -15.818484306 6.7492510425e-06 2.566634655 -11.401568413 0.14943543077
          0.14971114695 -5.2459077835 -0.036830537021 4.4928908348 -13.336436272 -0.19349138439
          0.52883368731 -6.7277626991 0.070348031819 -0.033620547503 -0.70872491598 4.4972622959e-07
          1.2261279821 -9.9597949982 -0.18219228089 9.635933876 -15.57474041 6.4609689616e-06
          1.8447678089 -9.9660339355 0.33782672882 -0.068641990423 -1.56125319 1.1648699001e-06
          0.14615079761 -5.262617588 3.5385803585e-06 1.2404712439 -9.9794998169 -0.11504112184
          4.4960489273 -13.347102165 4.7625348998e-06 1.0647903681 -8.272608757 0.18786023557
          13.440773964 -16.084552765 0.28914052248 7.7029924393 -15.298579216 -0.45008245111
          0.60417068005 -8.3387432098 -0.14276877046 0 0 0
          -0.093451984227 -2.5154912472 0.043331898749 2.0997979641 -11.673837662 -0.45125716925
          -0.096369363368 -2.5787332058 0.022377515212 7.6914491653 -15.330846786 -0.21592545509
          11.537914276 -15.806768417 0.26330906153 0.60400795937 -8.3695030212 -0.074454627931
          2.1705782413 -11.668653488 -0.12398913503 -0.034440595657 -0.70070648193 -0.012834554538
          0.13959868252 -3.7636377811 0.053254779428 5.6883006096 -13.343720436 0.42199254036
          1.232113719 -9.9634084702 3.8167218008e-06 0.53140634298 -6.6893177032 0.13916356862
          2.5734767914 -11.370038033 0.31439170241 7.6945066452 -15.342514992 6.1442642618e-06
          9.6356906891 -15.562171936 0.23840895295 0.60473334789 -8.3803577423 4.2341421249e-06
          -0.07050049305 -1.5461056232 -0.021583784372 -0.096886329353 -2.5977976322 2.0207069156e-06
          0.149711743 -5.2459073067 0.036837596446 4.4928922653 -13.336436272 0.19350092113
          2.1508998871 -11.672177315 3.3645162603e-06 3.2408897877 -13.303721428 -0.38297912478
          0.16853584349 -6.7792816162 -0.092108413577 3.2483537197 -13.339207649 -0.17171987891
          0.15686799586 -6.8186664581 -0.048100799322 13.437815666 -16.046766281 0.57979416847
          0 0 0 1.2404726744 -9.9795017242 0.1150495559
          -0.1083502844 -3.7708995342 0.028622331098 6.4803261757 -15.297969818 -0.38622224331
          -0.12345963717 -3.8355898857 0.013647833839 11.537370682 -15.769580841 0.52863812447
          -0.043908193707 -0.66671347618 -0.029892550781 6.5036783218 -15.313105583 -0.18409591913
          7.6914515495 -15.330845833 0.21593779325 0.60400855541 -8.3695030212 0.074463039637
          -0.096368588507 -2.578732729 -0.022373458371 2.1705796719 -11.668653488 0.12399626523
          3.2491481304 -13.345618248 4.5309507186e-06 0.15420792997 -6.8337507248 4.2233323256e-06
          9.6430301666 -15.528132439 0.47768998146 -0.076773896813 -1.4947546721 -0.04096564278
          4.4895524979 -13.313394547 0.39454671741 -0.1269813329 -3.8564937115 2.9265884223e-06
          0.16294072568 -5.1970047951 0.071329928935 6.4937548637 -15.314691544 5.5503810472e-06
          14.393715858 -18.019517899 -0.56782114506 0 0 0
          1.2261296511 -9.9597978592 0.18219842017 3.2483551502 -13.339207649 0.17172896862
          0 0 0 12.414021492 -17.74952507 -0.52762871981
          0.65981048346 -10.024026871 -0.14249962568 0.1568685323 -6.8186659813 0.048109181225
          -0.12222460657 -0.67208969593 0.079753883183 1.3563920259 -11.66737175 -0.14661565423
          14.39662075 -18.049604416 -0.28367036581 7.7029972076 -15.298577309 0.45009493828
          12.415107727 -17.778802872 -0.2638130784 -0.094414502382 -0.69956099987 0.033757910132
          0.60417181253 -8.3387441635 0.14277690649 0.66399347782 -10.05565834 -0.073235474527
          -0.09344997257 -2.5154905319 -0.043327782303 4.9657716751 -15.125682831 -0.34779459238
          -0.1234588623 -3.8355894089 -0.013642000966 2.0998005867 -11.673836708 0.45126456022
          -0.14630946517 -5.2547402382 -0.0043669519946 6.5036797523 -15.313105583 0.1841070205
          1.3573551178 -11.713356972 -0.10612799227 -0.16985151172 -5.3105564117 -0.004133708775
          4.9842243195 -15.140869141 -0.17839178443 10.448377609 -17.500226974 -0.49137213826
          14.39568615 -18.059455872 8.3880077e-06 -0.22395649552 -1.4682205915 0.11857423186
          0 0 0 10.443250656 -17.527950287 -0.24536648393
          -0.19937938452 -1.5170010328 0.061203945428 12.415027618 -17.788610458 8.0255695138e-06
          2.3324906826 -13.4087677 -0.19219261408 0.6691454649 -10.067411423 4.5135157052e-06
          1.3663856983 -11.705257416 3.4801278161e-06 0.16016609967 -8.4499073029 -0.10740961134
          -0.092673644423 -0.7068118453 4.651051313e-07 2.3351550102 -13.488554955 -0.11941734701
          4.9835925102 -15.144948006 5.3676690186e-06 0.15445418656 -8.482375145 -0.056901820004
          -0.17486843467 -5.3303780556 3.8199168557e-06 3.2408924103 -13.303720474 0.3829883039
          10.442214966 -17.537483215 7.6208361861e-06 0.1685372442 -6.7792816162 0.092116624117
          -0.19243860245 -1.5307992697 1.1956850585e-06 8.4645748138 -17.266599655 -0.45632189512
          14.396622658 -18.049604416 0.28368717432 2.3274459839 -13.48769474 4.3001477934e-06
          -0.306081146 -2.4577634335 0.14362348616 -0.10834827274 -3.770898819 -0.02861655876
          0.15453767776 -8.4968986511 4.7535090744e-06 6.4803285599 -15.297969818 0.38623332977
          0 0 0 8.458612442 -17.291788101 -0.22853909433
          -0.2975371182 -2.5291461945 0.073729775846 12.415110588 -17.778802872 0.26382917166
          0.66399466991 -10.055659294 0.073244191706 1.3573577404 -11.713356972 0.10613544285
          -0.09441421181 -0.69956082106 -0.033756949008 4.98422575 -15.140869141 0.17840252817
          -0.16985082626 -5.3105559349 0.0041412841529 10.443253517 -17.52794838 0.24538175762
          8.4567899704 -17.301362991 7.1921062954e-06 3.7436318398 -14.980246544 -0.3140771091
          -0.2240396291 -6.8935465813 -0.046931248158 -0.2942456305 -2.5492300987 2.0852680791e-06
          -0.19937878847 -1.5170007944 -0.061201516539 -0.24533735216 -6.9380345345 -0.025868408382
          2.3351566792 -13.488554955 0.11942598224 3.7441542149 -15.017834663 -0.16121952236
          0.15445484221 -8.482375145 0.056911244988 6.9107141495 -17.159532547 -0.22146813571
          14.393720627 -18.019515991 0.56783807278 0 0 0
          -0.37941032648 -3.7321703434 0.12889865041 6.9313435555 -17.110347748 -0.14106763899
          12.414027214 -17.74952507 0.52764493227 -0.3974968493 -3.8146181107 0.064885780215
          0.65981262922 -10.024027824 0.14250861108 3.7413954735 -15.024085999 5.1460906434e-06