<?xml version="1.0"?>
<VTKFile type="UnstructuredGrid" version="0.1" byte_order="LittleEndian" header_type="UInt32" compressor="vtkZLibDataCompressor">
  <UnstructuredGrid>
    <Piece NumberOfPoints="6405" NumberOfCells="4800">
      <PointData>
        <DataArray type="Float32" Name="DISPLACEMENT" NumberOfComponents="3" ComponentName0="X-DISPLACEMENT" ComponentName1="Y-DISPLACEMENT" ComponentName2="Z-DISPLACEMENT" format="ascii" RangeMin="0" RangeMax="273.90160254">
          0 0 0 0 0 0
          2.2888865471 -1.3670268059 -1.0492452383 0 0 0
          1.4387484789 -0.77945834398 -0.78034925461 0 0 0
          2.0947716236 -1.5240943432 -0.41435441375 1.2510234118 -0.91097408533 -0.31709420681
          0 0 0 4.1168165207 -2.6226708889 -1.0689463615
          0 0 0 4.0591602325 -2.7993965149 -0.54915815592
          2.8958089352 -2.1690604687 -0.87198936939 0 0 0
          0 0 0 2.1023833752 -1.5730284452 7.0454127865e-08
          0.96547687054 -0.47989627719 -0.54434645176 1.2450562716 -0.93280631304 1.3519199982e-08
          2.8301830292 -2.3088767529 -0.44461256266 0.82028836012 -0.60093450546 -0.22093605995
          4.0128731728 -2.8474187851 1.3866991821e-07 1.9749525785 -1.7968125343 -0.66727811098
          0 0 0 2.7920765877 -2.3527822495 3.3236855046e-08
          1.890822649 -1.9199795723 -0.34189277887 0 0 0
          5.7367095947 -4.2619285583 -0.98993831873 0 0 0
          0.81279420853 -0.61480909586 -4.655352015e-08 0 0 0
          0 0 0 2.0947716236 -1.5240943432 0.41435453296
          4.2433228493 -3.8445365429 -0.84565836191 5.7548751831 -4.3804512024 -0.5055128336
          0.37126803398 -0.29011055827 -0.28406155109 1.2510234118 -0.91097396612 0.31709423661
          4.255633831 -3.9541375637 -0.43018984795 0.23435364664 -0.4211076498 -0.13569812477
          1.8592787981 -1.9546192884 -7.8068595144e-08 4.0591602325 -2.7993962765 0.54915839434
          0 0 0 0 0 0
          0.90437239408 -1.5648103952 -0.48892959952 3.0332009792 -3.5388255119 -0.70936506987
          5.738910675 -4.4240131378 2.1780726911e-07 2.8301830292 -2.3088765144 0.44461262226
          3.0157778263 -3.6333050728 -0.36378070712 0.82028841972 -0.60093444586 0.22093597054
          4.2460179329 -3.9911997318 6.3190562116e-08 0.80899047852 -1.6686631441 -0.25944343209
          0.21432118118 -0.43317064643 -1.1010797607e-07 0 0 0
          7.2003035545 -6.0723705292 -0.87490791082 0 0 0
          5.5197577477 -5.6903944016 -0.77921062708 1.8908227682 -1.9199794531 0.34189262986
          7.2438926697 -6.1510543823 -0.44453176856 2.2888863087 -1.3670266867 1.0492453575
          0 0 0 0 0 0
          0.78796827793 -1.7014358044 -1.9471006851e-07 3.0050153732 -3.6684041023 -9.6319489273e-08
          0.083951175213 -0.38390645385 -0.22098736465 5.5589604378 -5.7683157921 -0.39409932494
          1.4387484789 -0.77945816517 0.78034931421 1.7365598679 -3.2655274868 -0.63399630785
          0 0 0 5.7548751831 -4.3804512024 0.50551331043
          -0.014367949218 -0.47119539976 -0.1010466218 1.7200837135 -3.3387796879 -0.30952596664
          4.255633831 -3.9541373253 0.43018996716 0.23435375094 -0.4211075604 0.13569793105
          4.0644025803 -5.3826518059 -0.69338709116 0.3447740078 -1.5351399183 -0.42478743196
          7.2446165085 -6.1800112724 3.0173870869e-07 4.1168165207 -2.6226706505 1.0689466
          0 0 0 0 0 0
          4.0871744156 -5.46270895 -0.3489716053 2.8958089352 -2.1690599918 0.871989429
          5.5645375252 -5.7979106903 1.0291979891e-07 0.32025197148 -1.6071314812 -0.22375272214
          0.96547687054 -0.47989609838 0.54434639215 0.01320196595 -0.52126717567 -2.3682417805e-07
          1.720068574 -3.3729643822 -2.6277422194e-07 3.0157778263 -3.6333045959 0.3637804985
          0.80899065733 -1.6686629057 0.25944304466 4.0887684822 -5.4928393364 -9.7864479187e-08
          1.9749525785 -1.7968120575 0.66727799177 0.37175557017 -1.6589258909 -3.4296522244e-07
          2.8609468937 -5.1419086456 -0.59005486965 7.2438926697 -6.1510539055 0.44453239441
          5.7367095947 -4.2619280815 0.98993873596 0 0 0
          8.5302171707 -7.9841890335 -0.78041899204 0 0 0
          0 0 0 0.91992396116 -3.0298523903 -0.54176485538
          2.8801038265 -5.2365584373 -0.28365439177 8.5736370087 -8.0377912521 -0.39354363084
          6.7213969231 -7.6217489243 -0.71183520555 5.5589609146 -5.7683153152 0.39409953356
          0.24036197364 -0.69643205404 -0.28165102005 0 0 0
          4.2433228493 -3.8445358276 0.84565854073 0.37126812339 -0.29011034966 0.28406140208
          0.97997367382 -3.1161515713 -0.24514435232 -0.014367745258 -0.47119531035 0.10104621202
          0.17982493341 -0.74203395844 -0.10136711597 1.7200838327 -3.338779211 0.3095254302
          6.7615861893 -7.6805901527 -0.35800147057 4.0871744156 -5.4627084732 0.34897139668
          2.8752491474 -5.2592349052 -3.2752441825e-07 8.5811157227 -8.058049202 3.9137859176e-07
          0.43206962943 -1.8003036976 -0.36803326011 0.3202522099 -1.607131362 0.22375202179
          0 0 0 5.1387200356 -7.2835378647 -0.63304162025
          0.9043725729 -1.5648099184 0.4889292419 3.0332009792 -3.5388250351 0.70936489105
          1.0122147799 -3.1590409279 -4.7043744189e-07 6.7717251778 -7.702246666 1.5534970998e-07
          0.19657427073 -0.78164410591 -1.7737895064e-07 0.40236389637 -1.852924943 -0.1639996767
          5.1652011871 -7.3535165787 -0.31942981482 7.2003035545 -6.0723695755 0.87490856647
          0 0 0 1.8121750355 -5.0482196808 -0.32606628537
          5.5197582245 -5.6903934479 0.7792108655 0.38017210364 -1.8779752254 -3.7644281292e-07
          1.8093811274 -5.1776108742 -0.18553504348 5.1709561348 -7.3765668869 -8.9066048758e-08
          0.08395126462 -0.38390621543 0.22098703682 2.8801038265 -5.2365574837 0.28365373611
          3.7071595192 -6.9677400589 -0.51343601942 8.5736370087 -8.0377902985 0.3935444057
          0.62305921316 -3.2342345715 -0.26571214199 1.7365601063 -3.2655267715 0.6339957118
          0 0 0 0.97997367382 -3.1161513329 0.24514338374
          3.7087450027 -7.0594711304 -0.26268064976 0.17982497811 -0.74203389883 0.1013667807
          0.5591378212 -3.3281331062 -0.091483905911 6.7615861893 -7.6805896759 0.35800176859
          4.0644025803 -5.3826508522 0.69338691235 0.34477418661 -1.5351394415 0.4247866869
          9.7466106415 -9.96671772 -0.71115016937 0 0 0
          1.790774107 -5.1897768974 -6.2264092549e-07 7.8512611389 -9.6339130402 -0.66147166491
          9.7812318802 -10.005910873 -0.35739302635 0 0 0
          0.25868877769 -0.90517282486 -0.23421028256 7.8829946518 -9.6780261993 -0.33109822869
          3.7084488869 -7.0820674896 -3.5461201264e-07 0.19728495181 -0.93764895201 -0.094107575715
          0.40236389637 -1.8529248238 0.16399891675 0.48666223884 -3.3492395878 -6.116877671e-07
          5.165201664 -7.3535161018 0.319429636 6.1411852837 -9.3504400253 -0.60688644648
          0.40100437403 -2.0601246357 -0.27501320839 9.7897996902 -10.020938873 4.9339297448e-07
          0 0 0 0.36712706089 -2.1050517559 -0.13164643943
          6.1591324806 -9.4008493423 -0.30321416259 7.8928918839 -9.69485569 2.2836044877e-07
          0.19239707291 -0.94713068008 -1.5883416893e-07 2.8609468937 -5.1419072151 0.5900541544
          2.0920441151 -6.7529010773 -0.33839404583 8.5302181244 -7.9841880798 0.7804197669
          0 0 0 1.0680068731 -5.0705580711 -0.035454887897
          1.8093811274 -5.1776099205 0.18553382158 0.91992384195 -3.029851675 0.5417637229
          6.7213973999 -7.6217474937 0.71183556318 0.24036186934 -0.69643199444 0.28165069222
          0.28133004904 -5.1299991608 0.035015251487 2.072758913 -6.8658576012 -0.19551831484
          3.7087450027 -7.0594706535 0.2626799643 0.55913776159 -3.3281331062 0.091482691467
          6.1665530205 -9.4189767838 -4.8194419122e-08 0.34700870514 -2.1239800453 -3.66008436e-07
          4.5649690628 -9.1446018219 -0.53792667389 0.56475704908 -3.5177333355 -0.25254133344
          0.43206939101 -1.8003035784 0.36803254485 9.7812318802 -10.00590992 0.35739400983
          5.1387200356 -7.283536911 0.63304144144 0 0 0
          2.081561327 -6.8921074867 -6.4146223622e-07 0.30254620314 -5.2256507874 -1.0100122836e-06
          4.5594615936 -9.19490242 -0.2728908658 7.8829946518 -9.6780261993 0.33109870553
          0.51280909777 -3.5824472904 -0.10463950783 0.197284922 -0.93764895201 0.094107270241
          1.8121749163 -5.0482187271 0.32606509328 4.565574646 -9.2165155411 -3.4181715591e-07
          6.1591324806 -9.4008493423 0.30321407318 0.36712697148 -2.1050517559 0.13164572418
          0.47529840469 -3.6100957394 -6.1686307617e-07 10.872476578 -11.995128632 -0.66554415226
          0 0 0 10.897877693 -12.027755737 -0.33375120163
          3.7071597576 -6.9677391052 0.51343530416 8.8952436447 -11.692214012 -0.62488383055
          0.62305891514 -3.234234333 0.2657110095 2.0227496624 -6.9057674408 -0.56150984764
          0.2176939249 -1.0162562132 -0.18081885576 0.28133001924 -5.1299986839 -0.035017229617
          2.072758913 -6.8658571243 0.19551704824 0 0 0
          8.9196510315 -11.727898598 -0.31205826998 0.22654990852 -6.817759037 0.035007692873
          0.16808734834 -1.0459729433 -0.073966361582 2.7468671799 -8.9063367844 -0.5207952261
          0.8343744278 -5.1581010818 -0.2814976275 9.7466106415 -9.9667167664 0.71115118265
          0 0 0 7.8512611389 -9.6339111328 0.66147214174
          10.905611038 -12.040222168 6.1722568034e-07 0.79632645845 -5.2593402863 -0.10774815828
          2.7307987213 -8.9382219315 -0.24597500265 0.25868856907 -0.90517282486 0.23420995474
          7.0487217903 -11.458974838 -0.58571004868 0.37324118614 -2.2301607132 -0.22531077266
          0 0 0 4.5594615936 -9.1949014664 0.27289018035
          0.51280903816 -3.5824472904 0.10463830084 8.9276418686 -11.74170208 3.2919143678e-07
          0.19930432737 -6.9143619537 -1.0159045587e-06 7.0691552162 -11.495212555 -0.29292565584
          0.34054625034 -2.2696940899 -0.11036982387 0.16502568126 -1.0529398918 -1.253600459e-07
          6.1411857605 -9.3504390717 0.60688638687 0.401004076 -2.0601243973 0.27501252294
          2.7477600574 -8.9611034393 -6.3858755084e-07 0.70190644264 -5.2997550964 -8.6811422761e-07
          2.0920443535 -6.7529001236 0.33839285374 7.0752363205 -11.51113987 2.7853513274e-08
          0.3248423636 -2.2839872837 -2.9879811336e-07 1.0680066347 -5.0705571175 0.035453140736
          10.897877693 -12.027754784 0.33375242352 5.306558609 -11.333141327 -0.5629850626
          0 0 0 0.54672050476 -3.6564042568 -0.24026910961
          5.3226900101 -11.3698349 -0.28055232763 8.9196519852 -11.727897644 0.31205895543
          0.16808731854 -1.0459729433 0.073966115713 0.22654989362 -6.8177580833 -0.035009674728
          0.52564662695 -3.697671175 -0.1169821322 4.5649695396 -9.1446008682 0.53792601824
          2.5352535248 -9.3173112869 -0.70951139927 2.7307987213 -8.9382219315 0.24597372115
          0.56475669146 -3.5177333355 0.25254020095 0.79632633924 -5.2593402863 0.1077465117
          1.1380681992 -6.9532117844 -0.37810909748 2.6166830063 -9.2769966125 -0.28622481227
          5.3273558617 -11.390534401 -2.8885349934e-07 7.0691556931 -11.495212555 0.29292571545
          0.34054616094 -2.2696943283 0.11036923528 1.2602909803 -6.8859472275 -0.23166556656
          0.51228398085 -3.7196214199 -5.0547464525e-07 11.942025185 -14.054969788 -0.63844108582
          0 0 0 0.17377984524 -1.0735595226 -0.13424785435
          2.5414452553 -9.2567100525 -1.0870883216e-06 3.8040568829 -11.257148743 -0.55409145355
          9.8818473816 -13.757761002 -0.59591472149 10.872476578 -11.995127678 0.66554540396
          0 0 0 0 0 0
          1.1619106531 -6.8332252502 -1.0690293948e-06 0.76617157459 -5.2568693161 -0.26268815994
          11.959226608 -14.087979317 -0.3196515739 3.8289830685 -11.310955048 -0.25026661158
          9.9003896713 -13.793958664 -0.29701000452 8.8952436447 -11.692213058 0.6248844862
          0.13598914444 -1.1027108431 -0.055067121983 2.022749424 -6.9057664871 0.56150817871
          0.21769373119 -1.0162563324 0.18081858754 0.75092095137 -5.282251358 -0.13358187675
          5.3226904869 -11.3698349 0.28055176139 0.52564650774 -3.697671175 0.11698114127
          7.8908424377 -13.525267601 -0.54727214575 2.7468674183 -8.906334877 0.520794034
          0.83437412977 -5.158100605 0.28149613738 0 0 0
          0.31243976951 -2.3129477501 -0.17028446496 11.965572357 -14.100010872 7.6902671253e-07
          0.13346472383 -1.109636426 -7.7091279138e-08 3.8290696144 -11.323616982 -6.3528074179e-07
          7.9134874344 -13.563610077 -0.27411696315 7.0487222672 -11.458973885 0.58571016788
          9.9060592651 -13.806767464 4.6137063237e-07 0.37324088812 -2.2301609516 0.22531019151
          0.75576084852 -5.2980360985 -7.2349280344e-07 0.28799116611 -2.3523323536 -0.086177498102
          2.6166834831 -9.2769956589 0.2862226963 1.2602908611 -6.8859467506 0.2316634953
          1.604902029 -9.0912227631 -0.3807798624 7.9184145927 -13.577327728 1.3935049026e-07
          0.27784267068 -2.364897728 -1.9538276774e-07 1.4737027884 -9.0205612183 -0.23190289736
          6.0379767418 -13.364826202 -0.50030833483 0 0 0
          0.45768433809 -3.7291531563 -0.18846663833 11.959226608 -14.087979317 0.31965312362
          0.13598909974 -1.1027108431 0.05506696552 3.8289833069 -11.310955048 0.25026535988
          6.068133831 -13.408009529 -0.25045317411 5.3065590858 -11.333140373 0.56298452616
          9.9003896713 -13.793958664 0.29701092839 2.8617188931 -11.393556595 -0.26125919819
          1.0035319328 -7.0188012123 -0.31506967545 0.54672008753 -3.6564044952 0.24026817083
          0.44318208098 -3.7713999748 -0.095839515328 0.75092077255 -5.282251358 0.13358046114
          2.8727765083 -11.512564659 -0.16988353431 0.96577250957 -7.0601592064 -0.15997478366
          1.4173797369 -8.9691619873 -1.2063273971e-06 2.5352540016 -9.3173093796 0.70950931311
          7.9134879112 -13.563609123 0.27411726117 1.1380679607 -6.9532113075 0.37810721993
          6.0695929527 -13.422307968 -1.975935362e-07 0.28799104691 -2.3523323536 0.086177110672
          0.43748497963 -3.7849242687 -3.4711300145e-07 2.8719527721 -11.513636589 -1.0121896139e-06
          0.97271567583 -7.0592160225 -9.4348786206e-07 0.61799573898 -5.3222455978 -0.2062689364
          4.4906005859 -13.236854553 -0.42004233599 11.942026138 -14.05496788 0.63844263554
          0 0 0 1.4737029076 -9.0205602646 0.23190054297
          0.17377969623 -1.0735596418 0.13424767554 0.60430544615 -5.3695120811 -0.10552567244
          3.8040573597 -11.257147789 0.55409020185 9.8818473816 -13.757760048 0.59591567516
          4.5096025467 -13.296701431 -0.21757857502 12.991147995 -16.162054062 -0.62600791454
          0 0 0 0.76617115736 -5.2568693161 0.26268684864
          13.000928879 -16.198860168 -0.31214362383 0.11929256469 -1.0985124111 -0.087537065148
          10.851456642 -15.859534264 -0.57395249605 6.0681343079 -13.408008575 0.25045278668
          0 0 0 0.44318193197 -3.7714002132 0.095838829875
          10.861978531 -15.899484634 -0.28675571084 0.094812981784 -1.1280925274 -0.036054179072
          2.8727767467 -11.512564659 0.16988152266 0.96577239037 -7.0601587296 0.15997293591
          7.8908429146 -13.525266647 0.54727244377 0.60005480051 -5.3825883865 -5.2596146816e-07
          4.5081110001 -13.309686661 -5.4570159591e-07 0.31243950129 -2.3129479885 0.17028407753
          2.0887215137 -11.299395561 -0.3097486496 0.22004799545 -2.3510770798 -0.11074839532
          8.7220525742 -15.583768845 -0.51538574696 1.2391703129 -9.0332155228 -0.3061440289
          13.004994392 -16.211006165 9.5276408274e-07 0 0 0
          2.0661044121 -11.367197037 -0.1959259063 10.865436554 -15.912590981 6.2674104129e-07
          0.093290999532 -1.1350649595 -1.597338084e-08 8.7363214493 -15.629483223 -0.25477144122
          0.20392516255 -2.3922262192 -0.056478485465 1.251483202 -9.078710556 -0.16312234104
          1.6049019098 -9.0912218094 0.38077774644 2.0690290928 -11.378969193 -1.32206128e-06
          0.78045994043 -7.1049757004 -0.21849228442 0.60430526733 -5.3695120811 0.10552463681
          2.9133422375 -13.06451416 -0.31834322214 8.7398605347 -15.641360283 2.8692855381e-07
          6.0379776955 -13.364824295 0.5003079772 4.5096030235 -13.296701431 0.21757748723
          1.2408875227 -9.0744934082 -1.1560269968e-06 0.1976313144 -2.4046132565 -6.5186796405e-08
          0.45768398046 -3.7291533947 0.18846598268 13.000928879 -16.198860168 0.31214553118
          6.6870951653 -15.434760094 -0.42798098922 0.77706933022 -7.1566643715 -0.11352036148
          0.32439228892 -3.7699787617 -0.12324883044 2.9088690281 -13.130758286 -0.17416930199
          2.8617196083 -11.393555641 0.26125717163 1.003531456 -7.0188012123 0.31506797671
          0 0 0 0.31375533342 -3.8181443214 -0.063223555684
          10.861979485 -15.899483681 0.28675699234 0.094812937081 -1.1280925274 0.036054141819
          6.7058196068 -15.476126671 -0.21822500229 0.77359211445 -7.1697669029 -7.299478284e-07
          2.9260439873 -13.149876595 -8.8148175337e-07 2.0661046505 -11.367196083 0.1959232688
          6.7075791359 -15.488451004 -6.6870747162e-08 0.30932721496 -3.8328630924 -1.4936854598e-07
          8.7363214493 -15.629482269 0.25477200747 0.20392507315 -2.3922264576 0.056478347629
          1.251483202 -9.078710556 0.16312009096 0.61799532175 -5.3222455978 0.20626795292
          4.4906010628 -13.236852646 0.4200412631 4.9850468636 -15.440200806 -0.40206372738
          12.991148949 -16.162052155 0.62600982189 0 0 0
          0.43648922443 -5.3702316284 -0.13322299719 0.11929246783 -1.0985126495 0.087537005544
          10.851457596 -15.859532356 0.57395380735 0.7770691514 -7.1566643715 0.11351892352
          2.9088692665 -13.130757332 0.17416754365 4.9955220222 -15.466515541 -0.20020705462
          1.5268831253 -11.234726906 -0.28391304612 0.42820847034 -5.4224767685 -0.068373560905
          0.31375518441 -3.8181445599 0.063223257661 6.7058200836 -15.476125717 0.21822488308
          1.5253003836 -11.265630722 -0.14536783099 2.3898098469 -13.551778793 -0.65078949928
          0.95075488091 -9.091044426 -0.21896445751 14.035977364 -18.350830078 -0.61946892738
          0 0 0 11.811226845 -18.0481987 -0.5672211647
          2.0887215137 -11.299394608 0.30974629521 0.22004778683 -2.3510773182 0.11074823886
          8.7220535278 -15.583767891 0.51538640261 0.95047515631 -9.1405143738 -0.11342138052
          2.4694335461 -13.499622345 -0.21868482232 1.2391700745 -9.0332155228 0.30614197254
          14.039715767 -18.388093948 -0.30877807736 0 0 0
          0.42531430721 -5.4388828278 -2.7233801347e-07 4.9967722893 -15.485330582 -4.27597314e-07
          0.057283312082 -1.1066960096 -0.040210604668 11.813991547 -18.087741852 -0.28304091096
          0.046648435295 -1.136533618 -0.016558688134 1.5112682581 -11.277622223 -1.3851461063e-06
          9.6045665741 -17.763486862 -0.50702035427 0.94952630997 -9.1553125381 -9.5763141417e-07
          2.4533765316 -13.530006409 -1.837780701e-06 14.041038513 -18.400213242 1.1700954019e-06
          0 0 0 0.10900504142 -2.3626101017 -0.048871986568
          9.6016712189 -17.808185577 -0.25185599923 11.815584183 -18.100271225 8.25846314e-07
          0.7804594636 -7.1049761772 0.21849094331 2.9133429527 -13.064512253 0.31834149361
          0.046091262251 -1.1436414719 5.5922953379e-08 0.1025608778 -2.4052743912 -0.025042718276
          6.6870956421 -15.43475914 0.42798089981 0.3243919909 -3.7699790001 0.12324851751
          0.55356001854 -7.1633257866 -0.14416046441 3.6155035496 -15.507545471 -0.45035946369
          0.42820826173 -5.4224767685 0.068373017013 4.9955224991 -15.466514587 0.20020622015
          0.54620438814 -7.2165737152 -0.074050664902 3.6231603622 -15.530452728 -0.19210071862
          1.5253005028 -11.265630722 0.14536514878 9.6037197113 -17.819301605 4.6927763719e-07
          0.099762938917 -2.4182577133 8.5703383945e-08 7.2040944099 -17.50670433 -0.4147464335
          0.95047497749 -9.1405143738 0.11341950297 2.4694340229 -13.499621391 0.21868151426
          14.039716721 -18.388093948 0.30878043175 0 0 0
          0.16601611674 -3.7812759876 -0.053028147668 7.2090411186 -17.551921844 -0.21189121902
          11.813991547 -18.087741852 0.28304257989 0.16146661341 -3.8324904442 -0.027218103409
          0.54475307465 -7.2343268394 -4.3727638399e-07 3.6252391338 -15.540216446 -7.9693444377e-07
          0.046648398042 -1.136533618 0.016558788717 9.6016721725 -17.80818367 0.25185695291
          7.2143983841 -17.561647415 1.0794902749e-07 0.15948984027 -3.8485212326 7.859125617e-08
          4.9850473404 -15.440199852 0.40206295252 1.8474522829 -13.440285683 -0.21868991852
          0.10256079584 -2.4052743912 0.025042876601 0.4364888072 -5.3702321053 0.13322244585
          1.1327264309 -11.229358673 -0.19846388698 1.818795681 -13.528229713 -0.1528429091
          1.5268831253 -11.234726906 0.28391057253 1.1412525177 -11.281427383 -0.10592755675
          0.54620414972 -7.2165737152 0.074049800634 3.6231608391 -15.530452728 0.19209913909
          2.3898108006 -13.551776886 0.65078657866 0.95075446367 -9.091044426 0.21896269917
          0.2315106988 -5.3843927383 -0.059233549982 5.3593091965 -17.460489273 -0.35383847356
          14.035978317 -18.350828171 0.61947131157 0 0 0
          11.811227798 -18.048196793 0.56722289324 0.22521650791 -5.4404726028 -0.030664969236
          1.8234909773 -13.51478672 -1.4882455162e-06 0.67252403498 -9.142127037 -0.1527749002
          2.779538393 -15.691283226 -0.27956956625 5.3697695732 -17.475193024 -0.18925304711
          0.057283289731 -1.1066962481 0.040210682899 1.14364326 -11.296800613 -1.1913131175e-06
          7.2090415955 -17.551921844 0.21189144254 0.1614664644 -3.8324906826 0.02721824497
          2.7731156349 -15.749840736 -0.16476455331 0.67131394148 -9.1928281784 -0.079382352531
          9.6045675278 -17.763484955 0.50702136755 0.2236340493 -5.4588389397 2.5013832783e-08
          5.3710522652 -17.485340118 -2.9351357966e-07 0.10900492966 -2.3626105785 0.048872109503
          2.7637839317 -15.741743088 -1.1841741525e-06 15.066802025 -20.629173279 -0.61441135406
          0 0 0 0.67202568054 -9.2110719681 -6.4902388885e-07
          15.067419052 -20.662651062 -0.30695801973 0 0 0
          1.8187958002 -13.528229713 0.15283994377 12.767766953 -20.334312439 -0.57036179304
          0.5535595417 -7.1633262634 0.14415961504 3.6155045033 -15.507544518 0.45035797358
          -0.0050360392779 -1.105006814 0.0062489714473 1.1412523985 -11.28142643 0.10592522472
          12.766446114 -20.368339539 -0.28417655826 -0.0016263533616 -1.1343696117 0.0024744120892
          7.2040953636 -17.50670433 0.41474670172 15.066989899 -20.673955917 1.4202198599e-06
          0.22521628439 -5.4404726028 0.030665002763 10.457197189 -20.07384491 -0.52425670624
          -0.0066687837243 -2.354228735 0.013521686196 5.36977005 -17.475191116 0.18925249577
          0 0 0 4.1928753853 -17.371189117 -0.36511975527
          0.30182921886 -7.1835503578 -0.073081612587 0.16601586342 -3.7812764645 0.053028244525
          -0.0021392584313 -2.3970849514 0.0065093687735 10.449350357 -20.105272293 -0.26171737909
          12.766468048 -20.379528046 1.055864459e-06 2.7731161118 -15.749840736 0.16476222873
          0.29402181506 -7.2415714264 -0.038353856653 4.1855816841 -17.391679764 -0.19022201002
          0.67131370306 -9.1928281784 0.079381071031 -0.001106397016 -1.1417349577 1.4326273856e-07
          1.2983748913 -13.478637695 -0.18617148697 10.449429512 -20.117670059 6.8129151032e-07
          1.8474524021 -13.440285683 0.21868725121 -0.0010976825142 -2.4104988575 2.5589204711e-07
          0.29338172078 -7.2615275383 -8.2929972223e-08 1.318128705 -13.532608986 -0.086564183235
          4.1826467514 -17.401071548 -6.3255066607e-07 1.1327260733 -11.229358673 0.19846171141
          15.067419052 -20.662651062 0.30696088076 8.1179542542 -19.81363678 -0.50456303358
          0.79605323076 -11.272880554 -0.15536113083 0 0 0
          -0.0042553250678 -3.765383482 0.020099150017 2.0841112137 -15.989329338 -0.3893019259
          -0.0012332210317 -3.8184201717 0.0099297910929 8.1061916351 -19.84176445 -0.24124540389
          12.766446114 -20.368339539 0.28417870402 0.80463409424 -11.317216873 -0.081243246794
          2.0494062901 -15.970809937 -0.19342876971 -0.0016263896832 -1.1343696117 -0.0024741520174
          0.23151029646 -5.3843932152 0.059233531356 5.3593101501 -17.460487366 0.35383799672
          1.3114613295 -13.557232857 -1.4160908677e-06 0.67252343893 -9.1421279907 0.1527736634
          2.7795393467 -15.691282272 0.27956733108 8.1090011597 -19.853872299 3.0323573696e-07
          10.449350357 -20.105272293 0.26171875 0.80972063541 -11.339336395 -9.0430017963e-07
          -0.0021393389907 -2.3970851898 -0.0065088779666 -0.00027786451392 -3.8351998329 3.2480426171e-07
          0.29402154684 -7.2415719032 0.038353670388 4.1855821609 -17.391677856 0.19022077322
          2.0675663948 -15.985676765 -1.4378127844e-06 2.8835124969 -17.221561432 -0.33451408148
          0.37642714381 -9.1717987061 -0.092659428716 2.8679263592 -17.250202179 -0.17771543562
          0.37004426122 -9.2273807526 -0.051228884608 15.066802979 -20.629171371 0.61441421509
          0 0 0 1.3181288242 -13.532608032 0.086561441422
          0.0021860410925 -5.362924099 0.02004176937 5.8318042755 -19.240736008 -0.41094437242
          0.0010441036429 -5.4245409966 0.0095133055001 12.767767906 -20.334310532 0.57036393881
          -0.0050359931774 -1.1050070524 -0.0062487334944 5.813603878 -19.243488312 -0.20478913188
          8.1061925888 -19.84176445 0.24124602973 0.80463391542 -11.317216873 0.081241466105
          -0.0012333750492 -3.8184201717 -0.0099291717634 2.0494065285 -15.970808983 0.19342580438
          2.8762302399 -17.263198853 -9.396050018e-07 0.37294733524 -9.250166893 -2.5763270628e-07
          10.457198143 -20.073843002 0.52425813675 -0.0066688214429 -2.3542292118 -0.013521254063
          4.192876339 -17.371189117 0.36511856318 0.0018470719224 -5.4444909096 3.4093054069e-07
          0.30182865262 -7.1835508347 0.073081374168 5.8223371506 -19.257808685 -1.0960270913e-07
          16.084388733 -22.977739334 -0.61053806543 0 0 0
          1.2983747721 -13.478636742 0.18616890907 2.8679270744 -17.250200272 0.17771357298
          0 0 0 13.714038849 -22.68646431 -0.57180511951
          0.93269431591 -13.474081993 -0.14179673791 0.37004393339 -9.2273807526 0.051228348166
          -0.055695112795 -1.0875265598 0.049914915115 1.493391633 -15.732091904 -0.070794470608
          16.084121704 -23.0070858 -0.30528444052 8.1179552078 -19.813634872 0.50456368923
          13.712824821 -22.715276718 -0.28606370091 -0.037938438356 -1.1171816587 0.018051769584
          0.79605275393 -11.272881508 0.1553594321 0.96161442995 -13.526362419 -0.076526843011
          -0.0042555215769 -3.7653837204 -0.020098615438 4.6559042931 -19.24745369 -0.43254375458
          0.0010438524187 -5.4245409966 -0.0095126591623 2.0841119289 -15.989328384 0.38929888606
          0.013623415492 -7.1716175079 0.0084298839793 5.8136043549 -19.243488312 0.20478893816
          1.4840587378 -15.8175354 -0.088517166674 0.0066898246296 -7.23848629 0.0016996510094
          4.6398792267 -19.264722824 -0.2082631886 11.343413353 -22.41258812 -0.53754132986
          16.083263397 -23.016946793 1.7007082533e-06 -0.099004298449 -2.3263399601 0.074421443045
          0 0 0 11.339050293 -22.440238953 -0.26831045747
          -0.083670370281 -2.3693504333 0.035755325109 13.712236404 -22.725263596 1.3134545043e-06
          2.3176238537 -17.560811996 -0.50993704796 0.97617661953 -13.550396919 -1.2002085441e-06
          1.488329649 -15.829063416 -1.5692718307e-06 0.44756108522 -11.295158386 -0.11932245642
          -0.036658518016 -1.1276600361 2.4483517791e-07 2.3567931652 -17.538249969 -0.20451846719
          4.6421699524 -19.277246475 -4.2600780148e-07 0.4576254487 -11.352233887 -0.062647342682
          0.0081806136295 -7.2610569 3.0366518899e-07 2.883513689 -17.221561432 0.33451229334
          11.337862015 -22.449754715 9.1826990456e-07 0.37642642856 -9.1717996597 0.09265884757
          -0.079458899796 -2.3839228153 4.4056190518e-07 8.9663581848 -22.151668549 -0.50012618303
          16.084121704 -23.0070858 0.30528786778 2.3459334373 -17.555400848 -1.381291213e-06
          -0.16427175701 -3.7321743965 0.093860633671 0.00218564854 -5.3629245758 -0.020041234791
          0.46529170871 -11.374847412 -5.1835650083e-07 5.831805706 -19.2407341 0.4109441936
          0 0 0 8.9620294571 -22.177219391 -0.25154143572
          -0.15144717693 -3.7841441631 0.046433631331 13.712824821 -22.715276718 0.28606632352
          0.96161437035 -13.526361465 0.076524503529 1.4840589762 -15.8175354 0.088514015079
          -0.037938486785 -1.1171816587 -0.01805130206 4.6398797035 -19.264720917 0.20826232433
          0.0066894642077 -7.23848629 -0.0016990916338 11.339051247 -22.440237045 0.26831230521
          8.9595041275 -22.186473846 5.1986256722e-07 3.535834074 -19.292562485 -0.43010294437
          0.012636559084 -9.1732387543 -0.024876385927 -0.14710840583 -3.8020234108 5.5966364698e-07
          -0.083670482039 -2.3693504333 -0.035754475743 0.010682033375 -9.2484264374 -0.0131141413
          2.3567931652 -17.538249969 0.20451574028 3.5345253944 -19.317182541 -0.19820761681
          0.45762512088 -11.352233887 0.062646299601 6.5648465157 -21.332487106 -0.46898961067
          16.08439064 -22.977737427 0.6105414629 0 0 0
          -0.24175913632 -5.3184838295 0.10913109034 6.5503153801 -21.362810135 -0.2341093868
          13.714039803 -22.686462402 0.57180774212 -0.23167364299 -5.3837304115 0.052934557199