<?xml version="1.0"?>
<VTKFile type="UnstructuredGrid" version="0.1" byte_order="LittleEndian" header_type="UInt32" compressor="vtkZLibDataCompressor">
  <UnstructuredGrid>
    <Piece NumberOfPoints="6405" NumberOfCells="4800">
      <PointData>
        <DataArray type="Float32" Name="DISPLACEMENT" NumberOfComponents="3" ComponentName0="X-DISPLACEMENT" ComponentName1="Y-DISPLACEMENT" ComponentName2="Z-DISPLACEMENT" format="ascii" RangeMin="0" RangeMax="243.2125352">
          0 0 0 0 0 0
          2.0896236897 -1.2077047825 -0.97460448742 0 0 0
          1.3343391418 -0.67270833254 -0.73330557346 0 0 0
          1.90830338 -1.3544448614 -0.38833141327 1.1610250473 -0.79813492298 -0.29896271229
          0 0 0 3.7934322357 -2.2823150158 -1.0098893642
          0 0 0 3.7391939163 -2.4581625462 -0.51857107878
          2.6892859936 -1.8475259542 -0.81274020672 0 0 0
          0 0 0 1.9168710709 -1.4029399157 9.3676071344e-08
          0.91586768627 -0.41548475623 -0.52689564228 1.1560912132 -0.82338303328 6.9629585653e-08
          2.6306116581 -1.9917843342 -0.41463524103 0.78721535206 -0.53621393442 -0.21295832098
          3.6978764534 -2.507297039 3.0954495855e-07 1.85333848 -1.4829903841 -0.60029435158
          0 0 0 2.5947413445 -2.0381574631 2.4834935175e-07
          1.7904200554 -1.6213928461 -0.3076530993 0 0 0
          5.3504834175 -3.7484586239 -0.94304227829 0 0 0
          0.78114497662 -0.55766010284 2.6289674437e-08 0 0 0
          0 0 0 1.9083034992 -1.3544448614 0.38833162189
          3.9708781242 -3.3300807476 -0.77915620804 5.3670444489 -3.875967741 -0.47900930047
          0.50859290361 -0.25266945362 -0.29402244091 1.1610251665 -0.79813486338 0.2989628911
          3.9816451073 -3.4505705833 -0.39689272642 0.424559623 -0.37805739045 -0.11932238191
          1.7584596872 -1.6604639292 1.6002162795e-07 3.7391941547 -2.4581623077 0.51857173443
          0 0 0 0 0 0
          1.0759836435 -1.2379807234 -0.37734270096 2.8455822468 -2.9796662331 -0.61583954096
          5.351211071 -3.920542717 6.3301558839e-07 2.6306121349 -1.991784215 0.41463577747
          2.8240602016 -3.0983393192 -0.31300511956 0.78721547127 -0.53621381521 0.21295841038
          3.971057415 -3.4897916317 5.2486126378e-07 1.0078853369 -1.3819802999 -0.19176985323
          0.41720941663 -0.39607021213 -2.9170845295e-08 0 0 0
          6.7723374367 -5.4652900696 -0.82678550482 0 0 0
          5.1887507439 -5.0902767181 -0.72037273645 1.790420413 -1.6213926077 0.30765342712
          6.8123373985 -5.547264576 -0.41785880923 2.0896241665 -1.2077047825 0.97460478544
          0 0 0 0 0 0
          0.98191142082 -1.4204506874 4.8819455145e-08 2.8092677593 -3.1346025467 3.8619663201e-07
          0.0055792420171 -0.18476393819 -0.044251862913 5.2195820808 -5.1711492538 -0.36343419552
          1.3343394995 -0.67270821333 0.73330581188 1.7404111624 -2.7077393532 -0.44153988361
          0 0 0 5.3670449257 -3.8759675026 0.47901058197
          -0.065639272332 -0.32479199767 -0.028750097379 1.686720252 -2.8291928768 -0.22399953008
          3.9816455841 -3.4505703449 0.3968937993 0.42455977201 -0.37805727124 0.11932235211
          3.8492295742 -4.7651338577 -0.61394894123 0.093004487455 -1.1160567999 -0.14702762663
          6.8092045784 -5.5754857063 1.0571670828e-06 3.793432951 -2.2823147774 1.0098900795
          0 0 0 0 0 0
          3.8423790932 -4.8453025818 -0.30967381597 2.6892867088 -1.8475257158 0.81274080276
          5.2225837708 -5.1987013817 8.9788039759e-07 0.020287018269 -1.2645359039 -0.0846074
          0.91586798429 -0.41548454762 0.52689582109 -0.087110772729 -0.34764540195 -1.0956778596e-07
          1.6674203873 -2.8646943569 2.2083187901e-07 2.8240609169 -3.0983390808 0.31300592422
          1.0078856945 -1.3819800615 0.19176998734 3.8370606899 -4.8715572357 7.0658205686e-07
          1.8533391953 -1.4829900265 0.60029476881 -0.0020072204061 -1.305160284 -8.7683986294e-08
          2.5128860474 -4.4940652847 -0.50419926643 6.8123378754 -5.5472640991 0.417860955
          5.3504843712 -3.7484583855 0.9430436492 0 0 0
          8.0259838104 -7.3381323814 -0.71918255091 0 0 0
          0 0 0 0.38769480586 -2.5344641209 -0.26351314783
          2.4639661312 -4.5740323067 -0.2545094192 8.0662488937 -7.3790712357 -0.3624574244
          6.3187761307 -7.0091147423 -0.66785085201 5.2195825577 -5.171148777 0.36343601346
          -0.47663807869 -0.31918090582 0.12790127099 0 0 0
          3.9708793163 -3.3300802708 0.77915740013 0.50859320164 -0.2526691854 0.29402250051
          0.32347142696 -2.6585347652 -0.13860709965 -0.065639041364 -0.32479181886 0.028749916703
          -0.52484250069 -0.4559224844 0.054400969297 1.6867208481 -2.8291924 0.22399999201
          6.3505625725 -7.0520887375 -0.33476373553 3.8423798084 -4.8453021049 0.30967524648
          2.4504630566 -4.5990157127 4.8697012289e-07 8.0689105988 -7.3946523666 1.5828190953e-06
          -0.64360833168 -0.99876052141 0.10280236602 0.020287450403 -1.2645355463 0.084607258439
          0 0 0 4.8378067017 -6.72965765 -0.61536365747
          1.0759842396 -1.2379802465 0.37734290957 2.8455834389 -2.9796657562 0.61584043503
          0.30967193842 -2.6947877407 2.9424628067e-08 6.3577919006 -7.0677657127 1.3706156778e-06
          -0.63676148653 -0.48914250731 -3.7096162941e-07 -0.70443469286 -1.1684778929 0.019016340375
          4.8373446465 -6.7699842453 -0.30953881145 6.7723388672 -5.4652895927 0.82678771019
          0 0 0 0.90513563156 -4.2768530846 -0.39053243399
          5.1887526512 -5.0902762413 0.7203746438 -0.77458965778 -1.2366881371 -6.0643905897e-08
          0.84408766031 -4.358397007 -0.19960550964 4.8378477097 -6.7849602699 1.1248531564e-06
          0.0055796029046 -0.18476358056 0.044251795858 2.4639670849 -4.5740318298 0.25451043248
          3.3748271465 -6.4823532104 -0.57385003567 8.0662488937 -7.3790707588 0.36246061325
          -0.8776679039 -2.3477191925 0.13006189466 1.7404122353 -2.7077386379 0.44154044986
          0 0 0 0.32347205281 -2.6585345268 0.13860718906
          3.3356499672 -6.5138788223 -0.2889572084 -0.52484184504 -0.45592236519 -0.05440152809
          -0.92168486118 -2.5508625507 0.012618716806 6.3505635262 -7.0520882607 0.33476650715
          3.8492310047 -4.7651329041 0.61395043135 0.093005210161 -1.1160562038 0.14702758193
          9.11977005 -9.2512254715 -0.63721013069 0 0 0
          0.83682960272 -4.3832602501 2.4270133281e-07 7.3569965363 -8.9638814926 -0.62510758638
          9.1526880264 -9.2643737793 -0.32147693634 0 0 0
          0.07178106159 -0.73449093103 -0.083217747509 7.3851428032 -8.9793777466 -0.31293001771
          3.3292534351 -6.5257906914 8.4944116452e-07 0.019534803927 -0.72717523575 -0.0052021839656
          -0.70443338156 -1.1684767008 -0.019016552716 -0.95007681847 -2.5831263065 -1.0163249726e-06
          4.8373456001 -6.7699837685 0.30954110622 5.7704935074 -8.7352342606 -0.61764329672
          0.068640097976 -1.5440781116 -0.20608621836 9.1582164764 -9.271232605 2.2089318463e-06
          0 0 0 -0.0098193800077 -1.5380630493 -0.046908821911
          5.7805123329 -8.7473373413 -0.30919501185 7.3932309151 -8.9871492386 1.9433996385e-06
          0.022065281868 -0.76389062405 -1.3552026701e-07 2.5128874779 -4.4940643311 0.50420039892
          1.6386169195 -6.2433614731 -0.53564101458 8.0259857178 -7.3381319046 0.71918582916
          0 0 0 0.78541350365 -4.2158284187 -0.75880002975
          0.84408849478 -4.3583965302 0.19960603118 0.38769590855 -2.5344634056 0.26351332664
          6.318778038 -7.0091137886 0.66785371304 -0.47663742304 -0.31918054819 -0.12790142
          0.81525582075 -4.40148592 -0.03058302775 1.5816341639 -6.2660303116 -0.27259010077
          3.3356511593 -6.5138778687 0.28895893693 -0.92168390751 -2.5508620739 -0.012620773166
          5.7854304314 -8.7542295456 1.6445575284e-06 -0.025889212266 -1.5766283274 -2.1129312699e-07
          4.2796382904 -8.5753755569 -0.61775183678 0.37103533745 -2.605271101 -0.37358266115
          -0.64360684156 -0.9987590909 -0.10280270129 9.1526889801 -9.2643728256 0.32148137689
          4.837808609 -6.7296566963 0.61536598206 0 0 0
          1.5819140673 -6.2731528282 5.5199291182e-07 0.56879973412 -4.9003839493 1.730832264e-05
          4.2732605934 -8.5719528198 -0.31539675593 7.3851437569 -8.9793777466 0.31293392181
          0.2677179873 -2.6135590076 -0.11493589729 0.019534971565 -0.72717487812 0.0052019339055
          0.90513712168 -4.2768521309 0.39053305984 4.2761650085 -8.5802316666 1.3102720686e-06
          5.7805137634 -8.7473373413 0.30919831991 -0.0098192719743 -1.5380623341 0.046908464283
          0.21248953044 -2.6879320145 1.1059078133e-06 10.10214138 -11.120768547 -0.58835703135
          0 0 0 10.126346588 -11.123597145 -0.29643911123
          3.3748290539 -6.4823522568 0.57385188341 8.3173074722 -10.856081009 -0.58972239494
          -0.87766677141 -2.3477182388 -0.13006323576 2.2262432575 -6.9935741425 -0.9291638732
          0.16604498029 -0.83054208755 -0.12548050284 0.81523931026 -4.4014782906 0.030591549352
          1.5816352367 -6.2660298347 0.27259123325 0 0 0
          8.3415679932 -10.861294746 -0.29477986693 2.2313239574 -6.7615680695 -0.31005403399
          0.11840841919 -0.83075273037 -0.049908746034 2.6056489944 -8.3265132904 -0.70514148474
          0.71881181002 -4.145857811 -0.41755878925 9.1197719574 -9.2512245178 0.63721466064
          0 0 0 7.3569989204 -8.9638805389 0.6251115799
          10.133647919 -11.126797676 2.9318548513e-06 0.59809327126 -4.2385182381 -0.20066140592
          2.5905785561 -8.2873735428 -0.33466058969 0.071781262755 -0.73449033499 0.083217546344
          6.6464719772 -10.652292252 -0.59533172846 0.32986441255 -1.7041950226 -0.2080309242
          0 0 0 4.2732615471 -8.5719528198 0.31539940834
          0.26771739125 -2.6135587692 0.11493739486 8.3492937088 -10.865476608 2.6138413887e-06
          0.045385412872 -5.4598126411 -1.6003876226e-05 6.6712808609 -10.65472126 -0.2989538312
          0.27187722921 -1.7187627554 -0.10447758436 0.11087469757 -0.83526158333 -1.4308717766e-07
          5.7704954147 -8.7352333069 0.61764669418 0.068640343845 -1.5440772772 0.20608600974
          2.5944237709 -8.2936868668 9.6015241979e-07 0.57370430231 -4.3503613472 -1.833375336e-06
          1.6386189461 -6.2433600426 0.53564232588 6.6780996323 -10.660716057 2.2640158477e-06
          0.25266650319 -1.7260066271 -1.4822234107e-07 0.78541773558 -4.2158274651 0.7588031888
          10.126347542 -11.123596191 0.29644501209 5.087831974 -10.533711433 -0.62577027082
          0 0 0 0.47201052308 -2.7969944477 -0.28748092055
          5.1194562912 -10.536761284 -0.31376302242 8.3415699005 -10.861293793 0.29478514194
          0.11840841174 -0.83075243235 0.049908481538 2.2313246727 -6.7615671158 0.31005468965
          0.41973695159 -2.845192194 -0.14820122719 4.2796401978 -8.5753746033 0.61775457859
          2.6039607525 -8.4136171341 -0.81968855858 2.5905797482 -8.2873725891 0.33466255665
          0.37103548646 -2.6052699089 0.37358313799 0.59809452295 -4.2385139465 0.20066317916
          1.3920428753 -6.3195700645 -0.45427265763 2.929530859 -8.5486450195 -0.3373016417
          5.1255722046 -10.548126221 1.8804249748e-06 6.6712822914 -10.654720306 0.29895836115
          0.27187713981 -1.7187622786 0.10447727889 1.290460825 -6.2671236992 -0.38752305508
          0.4036783874 -2.8624589443 -3.2763921354e-07 11.041698456 -12.929373741 -0.56861001253
          0 0 0 0.16030582786 -0.83215522766 -0.11018648744
          3.1581189632 -8.7662534714 2.5325644515e-07 3.8799333572 -10.426060677 -0.65614277124
          9.2354183197 -12.659399986 -0.56032907963 10.102143288 -11.120767593 0.58836299181
          0 0 0 0 0 0
          1.5580239296 -6.045249939 1.7015989897e-06 0.70203226805 -4.256278038 -0.34459456801
          11.057301521 -12.937011719 -0.28506916761 3.9271323681 -10.456074715 -0.30295214057
          9.254447937 -12.670273781 -0.27921009064 8.3173103333 -10.856080055 0.58972769976
          0.12270379812 -0.85231733322 -0.046764459461 2.2262444496 -6.9935727119 0.92916369438
          0.16604489088 -0.83054155111 0.12548024952 0.68638080359 -4.3225588799 -0.17315977812
          5.1194572449 -10.53676033 0.31376680732 0.41973716021 -2.8451912403 0.14820078015
          7.478582859 -12.438322067 -0.54555988312 2.6056516171 -8.3265113831 0.7051435113
          0.71881020069 -4.1458544731 0.41756105423 0 0 0
          0.29447409511 -1.7767306566 -0.16245602071 11.064733505 -12.94076252 3.7471984342e-06
          0.11926820129 -0.85751271248 -1.9055231348e-07 3.9270019531 -10.458745956 1.4281179119e-06
          7.5089149475 -12.451267242 -0.27402374148 6.6464743614 -10.652290344 0.59533631802
          9.260509491 -12.674703598 3.3763653846e-06 0.32986435294 -1.7041940689 0.20803061128
          0.69786930084 -4.3222689629 -3.2295181995e-07 0.2583181262 -1.8152356148 -0.083443552256
          2.929530859 -8.5486431122 0.33730220795 1.2904592752 -6.2671232224 0.38752132654
          2.2324182987 -8.2632579803 -0.46298611164 7.5156984329 -12.457064629 2.9784102935e-06
          0.24724619091 -1.8262091875 -4.2796042976e-07 2.1486737728 -8.3350038528 -0.26682674885
          5.8910765648 -12.262901306 -0.53385394812 0 0 0
          0.42175588012 -2.919200182 -0.20385436714 11.057303429 -12.937011719 0.2850766778
          0.12270375341 -0.8523170948 0.046764090657 3.9271337986 -10.456073761 0.30295500159
          5.9366469383 -12.283963203 -0.26816573739 5.0878343582 -10.533709526 0.62577414513
          9.2544488907 -12.670272827 0.27921685576 3.3369400501 -10.516704559 -0.34646454453
          1.0466474295 -6.0251498222 -0.35409587622 0.47201049328 -2.7969930172 0.28748065233
          0.39707234502 -2.9759297371 -0.10427933931 0.68638056517 -4.3225574493 0.17315866053
          3.3762819767 -10.633965492 -0.2189284265 1.0596904755 -6.0973410606 -0.18418084085
          1.9330221415 -8.1297082901 -1.2731931065e-06 2.6039614677 -8.4136142731 0.81968903542
          7.508916378 -12.451266289 0.27402973175 1.3920422792 -6.3195672035 0.45427310467
          5.9416012764 -12.291517258 2.5502627068e-06 0.2583180964 -1.8152351379 0.083442717791
          0.39003291726 -2.9893321991 -7.1534657309e-07 3.3892495632 -10.631490707 8.7689227257e-07
          1.0214698315 -6.1120252609 -1.1079914657e-06 0.56638991833 -4.3303823471 -0.22094787657
          4.6840305328 -12.097463608 -0.47635108232 11.041701317 -12.929371834 0.56861758232
          0 0 0 2.1486749649 -8.3350028992 0.26682502031
          0.16030558944 -0.83215475082 0.11018609256 0.55620074272 -4.3998413086 -0.11640184373
          3.8799362183 -10.426059723 0.65614575148 9.2354211807 -12.659398079 0.56033593416
          4.7225866318 -12.14287281 -0.24732832611 11.98809433 -14.724689484 -0.5673404336
          0 0 0 0.70203232765 -4.256275177 0.34459418058
          11.995927811 -14.743220329 -0.2822329402 0.10098894686 -0.82680368423 -0.067643396556
          10.150039673 -14.440162659 -0.53821980953 5.9366483688 -12.28396225 0.26817086339
          0 0 0 0.39707225561 -2.9759290218 0.10427794605
          10.16040802 -14.461700439 -0.26868203282 0.079552486539 -0.85786211491 -0.028577812016
          3.3762836456 -10.633964539 0.21893024445 1.0596908331 -6.0973396301 0.18417964876
          7.4785861969 -12.43832016 0.54556596279 0.54800289869 -4.4187393188 -1.0741828191e-06
          4.7270278931 -12.149467468 2.0865425086e-06 0.29447376728 -1.7767298222 0.16245521605
          2.9882230759 -10.896811485 -0.40861928463 0.19186888635 -1.8065407276 -0.092913359404
          8.3037214279 -14.163490295 -0.50202310085 1.4679899216 -8.0564546585 -0.30469471216
          12.001117706 -14.748850822 4.6497816584e-06 0 0 0
          2.9287798405 -10.883692741 -0.21673831344 10.164084435 -14.468154907 4.2235883484e-06
          0.077621310949 -0.86524552107 -2.6683500209e-07 8.3238534927 -14.190707207 -0.24779132009
          0.17347706854 -1.8544211388 -0.048213604838 1.4981831312 -8.1218929291 -0.1686770916
          2.2324199677 -8.2632551193 0.46298593283 3.0256099701 -10.953051567 3.1594268535e-08
          0.75694793463 -6.0151920319 -0.2138440758 0.55620080233 -4.3998403549 0.11639986187
          3.480561018 -11.892120361 -0.39179372787 8.328792572 -14.196200371 3.77598667e-06
          5.8910794258 -12.262899399 0.53385913372 4.7225880623 -12.142871857 0.24733252823
          1.5170584917 -8.1206769943 -7.9943407627e-07 0.16727957129 -1.8680284023 -6.2746062213e-07
          0.42175558209 -2.9191987514 0.20385308564 11.995928764 -14.743220329 0.28224223852
          6.5889959335 -14.000380516 -0.43844342232 0.76518464088 -6.0905213356 -0.11172985286
          0.27633965015 -2.9786696434 -0.11132732034 3.4923205376 -11.944228172 -0.21101905406
          3.3369431496 -10.516702652 0.34646645188 1.0466475487 -6.025147438 0.35409447551
          0 0 0 0.26365560293 -3.0395298004 -0.05794627592
          10.160409927 -14.461699486 0.26869049668 0.079552419484 -0.85786193609 0.02857728675
          6.6201653481 -14.024212837 -0.22567673028 0.77207285166 -6.1088781357 -1.255453526e-06
          3.5144500732 -11.955887794 1.6246082168e-06 2.9287822247 -10.883691788 0.21673850715
          6.6247982979 -14.033333778 3.3198659821e-06 0.25848686695 -3.0574154854 -1.0430204611e-06
          8.3238554001 -14.190706253 0.24779888988 0.17347690463 -1.8544207811 0.048212356865
          1.4981836081 -8.1218919754 0.16867542267 0.5663896203 -4.3303804398 0.22094602883
          4.6840333939 -12.0974617 0.47635534406 5.2768101692 -13.95963192 -0.447991997
          11.988097191 -14.724687576 0.56734985113 0 0 0
          0.36514076591 -4.3858656883 -0.12040548772 0.10098855942 -0.82680332661 0.067642815411
          10.150043488 -14.440161705 0.538228333 0.76518476009 -6.0905203819 0.11172728986
          3.4923222065 -11.944227219 0.21102233231 5.3006458282 -13.977174759 -0.22385267913
          2.0163128376 -10.207284927 -0.18184988201 0.3605145514 -4.4528493881 -0.061618149281
          0.26365545392 -3.0395293236 0.05794422701 6.6201672554 -14.024211884 0.22568339109
          2.0480380058 -10.267674446 -0.13136811554 3.25461483 -12.124298096 -0.61928331852
          1.0139627457 -7.9120893478 -0.17827965319 12.952864647 -16.573881149 -0.56949073076
          0 0 0 11.063181877 -16.285280228 -0.53276062012
          2.988227129 -10.896809578 0.40861976147 0.19186830521 -1.8065400124 0.092912144959
          8.3037252426 -14.163488388 0.50203073025 1.0378459692 -7.9798331261 -0.09199744463
          3.3254451752 -12.090561867 -0.18979132175 1.4679908752 -8.0564517975 0.30469325185
          12.954814911 -16.597942352 -0.28294116259 0 0 0
          0.35891896486 -4.4731421471 -1.4486590771e-06 5.3115682602 -13.994842529 2.8454096537e-06
          0.027833690867 -0.81764316559 -0.014648201875 11.064829826 -16.311328888 -0.26561534405
          0.023529814556 -0.8527135849 -0.0061546280049 2.017468214 -10.254536629 -5.606718787e-07
          9.1845016479 -15.99361515 -0.48587909341 1.036608696 -7.9978089333 -1.3514347756e-06
          3.3410170078 -12.123656273 2.1892391544e-07 12.956555367 -16.604999542 5.6358644542e-06
          0 0 0 0.06064138189 -1.8051499128 -0.018955575302
          9.1832723618 -16.024791718 -0.24115295708 11.066493034 -16.318464279 5.1485990298e-06
          0.75694799423 -6.0151896477 0.21384194493 3.4805643559 -11.892118454 0.39179712534
          0.023135131225 -0.86112672091 -3.193542284e-07 0.056474342942 -1.8568639755 -0.0099670533091
          6.5889992714 -14.000378609 0.43845015764 0.2763389945 -2.9786684513 0.11132539064
          0.47138041258 -6.0285263062 -0.11660510302 4.3073554039 -13.97214222 -0.49236428738
          0.36051443219 -4.4528484344 0.061615299433 5.3006477356 -13.977173805 0.22385840118
          0.47616589069 -6.0926728249 -0.059225820005 4.3365082741 -14.001719475 -0.2166941911
          2.0480389595 -10.267673492 0.13136707246 9.1860170364 -16.029745102 4.6400755309e-06
          0.054836537689 -1.8725631237 -7.5712716807e-07 7.1159729958 -15.702637672 -0.40097633004
          1.0378463268 -7.9798321724 0.091994866729 3.3254477978 -12.090560913 0.18979245424
          12.954815865 -16.597942352 0.28295245767 0 0 0
          0.098304010928 -2.9888560772 -0.023951860145 7.1256537437 -15.733665466 -0.21273116767
          11.064831734 -16.311328888 0.26562565565 0.093573361635 -3.0513355732 -0.012437163852
          0.47538393736 -6.1137485504 -1.7822117115e-06 4.3446936607 -14.010931969 2.3168367989e-06
          0.023529706523 -0.85271346569 0.0061539965682 9.1832742691 -16.024791718 0.24116227031
          7.1344122887 -15.742291451 4.1427360884e-06 0.091937832534 -3.07072258 -1.2632343669e-06
          5.2768135071 -13.959630966 0.44799780846 2.6163668633 -11.973089218 -0.22675721347
          0.056474119425 -1.8568637371 0.0099655427039 0.36514028907 -4.3858642578 0.12040286511
          1.3389965296 -9.8751134872 -0.12835533917 2.6172537804 -12.059384346 -0.13105234504
          2.0163147449 -10.20728302 0.18184918165 1.3619149923 -9.9326057434 -0.065971858799
          0.4761659503 -6.0926718712 0.059222374111 4.3365101814 -14.001718521 0.21669887006
          3.2546195984 -12.124297142 0.61928534508 1.0139634609 -7.9120869637 0.17827740312
          0.13825012743 -4.4006848335 -0.030104199424 5.808655262 -15.557785034 -0.41978371143
          12.952868462 -16.573879242 0.56950211525 0 0 0
          11.063185692 -16.28527832 0.53277099133 0.13314397633 -4.4656267166 -0.015680411831
          2.6291246414 -12.056384087 3.3087846418e-07 0.6049618125 -7.8505992889 -0.099590919912
          3.8843200207 -14.1155653 -0.30048182607 5.8338294029 -15.581102371 -0.20815701783
          0.027833187953 -0.81764286757 0.014647495933 1.3733112812 -9.9547128677 -1.0265951005e-06
          7.1256556511 -15.733664513 0.21273948252 0.093573093414 -3.0513350964 0.012434674427
          3.9156787395 -14.195593834 -0.17060659826 0.61795663834 -7.9048547745 -0.050333656371
          9.184504509 -15.993613243 0.48588848114 0.13131259382 -4.4867892265 -1.7773433001e-06
          5.8393955231 -15.594257355 3.6993333197e-06 0.060640595853 -1.805149436 0.018954088911
          3.9137539864 -14.196637154 1.6284978983e-06 13.912584305 -18.500751495 -0.56823319197
          0 0 0 0.62185811996 -7.9244503975 -1.8916854287e-06
          13.912098885 -18.522531509 -0.28332230449 0 0 0
          2.6172552109 -12.059383392 0.13105294108 11.973698616 -18.222423553 -0.53888398409
          0.47138029337 -6.0285243988 0.11660190672 4.3073592186 -13.972140312 0.49236902595
          -0.05102218315 -0.80461198092 0.040966842324 1.3619157076 -9.9326047897 0.065969869494
          11.971135139 -18.244085312 -0.26818078756 -0.03729371354 -0.83974933624 0.017346255481
          7.1159768105 -15.702635765 0.4009847343 13.911497116 -18.529491425 6.7020919232e-06
          0.13314378262 -4.4656262398 0.015676928684 10.025285721 -17.970373154 -0.50840234756
          -0.080841295421 -1.7754107714 0.05789482221 5.8338313103 -15.581101418 0.20816445351
          0 0 0 4.9154434204 -15.407035828 -0.38143053651
          0.17784422636 -6.0357112885 -0.037121154368 0.09830313921 -2.9888553619 0.02394948341
          -0.070505291224 -1.8289712667 0.029833989218 10.016059875 -17.988670349 -0.25348231196
          11.971086502 -18.250724792 6.1467085288e-06 3.9156811237 -14.19559288 0.17061001062
          0.17403095961 -6.095035553 -0.01925618574 4.9396195412 -15.449931145 -0.19086487591
          0.61795699596 -7.9048538208 0.050329975784 -0.036054685712 -0.84827202559 -3.3738123761e-07
          1.6226330996 -11.81201458 -0.088497124612 10.016458511 -17.99669075 5.5708492255e-06
          2.6163699627 -11.973088264 0.22675774992 -0.067262202501 -1.8449540138 -8.1337049096e-07
          0.17341986299 -6.115468502 -2.2227254703e-06 1.6508171558 -11.879382133 -0.037874989212
          4.9395060539 -15.459854126 3.1904219213e-06 1.3389980793 -9.8751115799 0.12835359573
          13.912100792 -18.522529602 0.28333574533 8.0305271149 -17.718040466 -0.50849014521
          0.75340229273 -9.7636699677 -0.073560759425 0 0 0
          -0.093536622822 -2.9497878551 0.066012866795 3.0674347878 -14.2120924 -0.1746045351
          -0.09088653326 -3.0163180828 0.033657539636 8.0172338486 -17.733419418 -0.24065813422
          11.971137047 -18.244083405 0.26819312572 0.77327597141 -9.8061704636 -0.035815339535
          3.0584824085 -14.297779083 -0.098498106003 -0.0372938402 -0.83974927664 -0.017346926033
          0.13824936748 -4.4006838799 0.030100915581 5.8086585999 -15.557782173 0.41979122162
          1.6460182667 -11.895894051 -3.498860508e-07 0.60496228933 -7.8505973816 0.0995875597
          3.8843243122 -14.115563393 0.30048558116 8.022485733 -17.740591049 4.9732202569e-06
          10.016061783 -17.988668442 0.25349348783 0.77662223577 -9.8241481781 -1.7155660998e-06
          -0.070505559444 -1.8289711475 -0.029835615307 -0.089498460293 -3.0367629528 -1.3785712554e-06
          0.17403095961 -6.0950345993 0.019251827151 4.9396214485 -15.449929237 0.19087129831
          3.0595571995 -14.319608688 1.4461327282e-06 4.0075249672 -15.331502914 -0.2873852253
          0.21484223008 -7.8414597511 -0.042347323149 4.0063929558 -15.385290146 -0.14937417209
          0.21518912911 -7.8888001442 -0.022572655231 13.91258812 -18.500749588 0.56824666262
          0 0 0 1.6508182287 -11.879382133 0.037874311209
          -0.10330491513 -4.3698005676 0.059657052159 6.6539654732 -17.205381393 -0.39256793261
          -0.11058885604 -4.4398217201 0.030068257824 11.973702431 -18.222421646 0.53889638186
          -0.051022749394 -0.80461186171 -0.040967602283 6.6678671837 -17.228561401 -0.19253730774
          8.0172367096 -17.733417511 0.240668118 0.77327662706 -9.8061695099 0.035812016577
          -0.090886846185 -3.0163178444 -0.033660259098 3.0584840775 -14.297777176 0.098500840366
          4.0009403229 -15.392590523 2.7652383778e-06 0.21616522968 -7.9078655243 -2.509501428e-06
          10.025290489 -17.970371246 0.50841355324 -0.080842196941 -1.775410533 -0.057896435261
          4.9154472351 -15.40703392 0.38143703341 -0.11172196269 -4.4623436928 -1.9842229904e-06
          0.17784385383 -6.0357098579 0.037117093801 6.6636791229 -17.238082886 4.5864385356e-06
          14.85707283 -20.482362747 -0.56424933672 0 0 0
          1.6226354837 -11.812012672 0.088496588171 4.0063958168 -15.385289192 0.14937965572
          0 0 0 12.870423317 -20.210496902 -0.54194378853
          0.91137832403 -11.685430527 -0.0345880799 0.21518944204 -7.8887991905 0.022567763925
          -0.12548415363 -0.7918510437 0.09258813411 1.8880717754 -13.766745567 0.021314775571
          14.856602669 -20.49939537 -0.28198194504 8.0305318832 -17.718038559 0.50850021839
          12.868785858 -20.226531982 -0.27095726132 -0.093146704137 -0.82080829144 0.039200875908
          0.75340360403 -9.7636680603 0.073557749391 0.933781147 -11.719910622 -0.015481373295
          -0.093537651002 -2.9497873783 -0.066015481949 5.4386367798 -17.032936096 -0.34709453583
          -0.11058910936 -4.4398212433 -0.030072158203 3.0674381256 -14.212090492 0.17460696399
          -0.129459396 -6.0301070213 0.04055327177 6.667869091 -17.228559494 0.19254656136
          1.9056664705 -13.828479767 -0.013615001924 -0.14346051216 -6.0928878784 0.019272334874
          5.4407434464 -17.06505394 -0.17756916583 10.884130478 -19.951263428 -0.52437585592
          14.85539341 -20.504997253 7.8431066868e-06 -0.21891631186 -1.717187047 0.13869643211
          0 0 0 10.878770828 -19.965112686 -0.26185524464
          -0.18912781775 -1.7692313194 0.07120603323 12.867983818 -20.232063293 7.2136581366e-06
          3.1673324108 -15.455806732 -0.19556598365 0.93956154585 -11.737939835 -1.1903216546e-06
          1.9080365896 -13.854712486 5.8717063212e-07 0.252589643 -9.7352409363 -0.039811935276
          -0.090607367456 -0.82850444317 -3.1479478935e-07 3.1623184681 -15.521339417 -0.10012730211
          5.4429965019 -17.078817368 4.1727194002e-06 0.26061061025 -9.7692546844 -0.02123317495
          -0.14633776248 -6.1144800186 -2.5967133297e-06 4.0075297356 -15.331501961 0.28739064932
          10.877446175 -19.970201492 6.5625363277e-06 0.21484254301 -7.8414578438 0.042342785746
          -0.18018253148 -1.7836763859 -7.8464245234e-07 8.8901576996 -19.697149277 -0.50938218832
          14.856604576 -20.499393463 0.28199765086 3.1582245827 -15.535431862 2.5467627438e-06
          -0.28532207012 -2.8585064411 0.16676816344 -0.1033058688 -4.3698000908 -0.059660743922
          0.26424363256 -9.7861499786 -2.502011057e-06 6.6539697647 -17.205377579 0.39257740974
          0 0 0 8.8849344254 -19.707290649 -0.25492802262
          -0.27200680971 -2.9311215878 0.086640484631 12.868787766 -20.226531982 0.27097168565
          0.93378210068 -11.719909668 0.015479088761 1.9056675434 -13.828478813 0.013616221957
          -0.093146838248 -0.82080823183 -0.039201505482 5.4407453537 -17.065052032 0.17757748067
          -0.14346054196 -6.0928874016 -0.01927742362 10.878773689 -19.965110779 0.26186838746
          8.8820838928 -19.712396622 5.8966770666e-06 4.4441056252 -16.909231186 -0.30238553882
          -0.18201418221 -7.8627581596 0.010024265386 -0.26675230265 -2.9509882927 -1.3687144929e-06
          -0.18912808597 -1.7692313194 -0.071207605302 -0.19452042878 -7.9159369469 0.0045578456484
          3.1623196602 -15.521338463 0.10013203323 4.4323596954 -16.964765549 -0.15187205374
          0.2606112957 -9.7692537308 0.021228285506 7.032500267 -18.783975601 -0.30611026287
          14.857076645 -20.48236084 0.56426507235 0 0 0
          -0.35434690118 -4.2915692329 0.16605626047 7.0324211121 -18.771158218 -0.1870829016