<?xml version="1.0"?>
<VTKFile type="UnstructuredGrid" version="0.1" byte_order="LittleEndian" header_type="UInt32" compressor="vtkZLibDataCompressor">
  <UnstructuredGrid>
    <Piece NumberOfPoints="6405" NumberOfCells="4800">
      <PointData>
        <DataArray type="Float32" Name="DISPLACEMENT" NumberOfComponents="3" ComponentName0="X-DISPLACEMENT" ComponentName1="Y-DISPLACEMENT" ComponentName2="Z-DISPLACEMENT" format="ascii" RangeMin="0" RangeMax="250.87861999">
          0 0 0 0 0 0
          2.1099228859 -1.2142772675 -0.98696857691 0 0 0
          1.3519951105 -0.67535609007 -0.7451249361 0 0 0
          1.925825119 -1.3622348309 -0.39383152127 1.1761593819 -0.80150902271 -0.30387610197
          0 0 0 3.8359315395 -2.2839891911 -1.0272858143
          0 0 0 3.7804045677 -2.4642550945 -0.52755016088
          2.7235965729 -1.842885375 -0.82496505976 0 0 0
          0 0 0 1.9348237514 -1.4116258621 1.3288463663e-07
          0.93094331026 -0.42160111666 -0.54115504026 1.1712707281 -0.8274667263 6.3545712692e-08
          2.6649463177 -1.9910080433 -0.42117273808 0.8028216958 -0.54094624519 -0.21920387447
          3.7392916679 -2.5148468018 3.3049647641e-07 1.882486105 -1.472837925 -0.60930633545
          0 0 0 2.6289763451 -2.0389447212 1.9553699815e-07
          1.8229976892 -1.6160693169 -0.31264436245 0 0 0
          5.4242992401 -3.7522201538 -0.96450221539 0 0 0
          0.79824721813 -0.5636356473 -1.9895974646e-08 0 0 0
          0 0 0 1.925825119 -1.3622347116 0.39383178949
          4.0251531601 -3.3239908218 -0.79028320312 5.4407525063 -3.8872890472 -0.48975399137
          0.580755651 -0.25497153401 -0.32604378462 1.1761595011 -0.8015089035 0.30387625098
          4.0366292 -3.4522237778 -0.40259703994 0.49371185899 -0.38157451153 -0.13632106781
          1.7910857201 -1.6569396257 3.839488727e-08 3.7804048061 -2.4642548561 0.52755081654
          0 0 0 0 0 0
          1.125521183 -1.236585021 -0.37690111995 2.8790750504 -2.9672503471 -0.61511659622
          5.4255151749 -3.9343328476 5.9870518498e-07 2.6649465561 -1.9910076857 0.42117315531
          2.8620946407 -3.0943722725 -0.31276625395 0.80282175541 -0.54094606638 0.21920385957
          4.0262622833 -3.4939174652 3.9415886022e-07 1.0748203993 -1.3865044117 -0.19523479044
          0.48404794931 -0.39916840196 -1.4359338252e-07 0 0 0
          6.8857960701 -5.4916462898 -0.85041636229 0 0 0
          5.2633476257 -5.1060743332 -0.73031055927 1.8229979277 -1.6160689592 0.31264448166
          6.9261655807 -5.5833725929 -0.42939767241 2.1099228859 -1.214277029 0.98696887493
          0 0 0 0 0 0
          1.0553473234 -1.4283581972 -1.463670003e-07 2.8485813141 -3.1327910423 1.6701046945e-07
          0.080965407193 -0.2028837949 -0.083548948169 5.2949314117 -5.196703434 -0.36844199896
          1.3519954681 -0.67535579205 0.74512511492 1.763289094 -2.6962342262 -0.42395606637
          0 0 0 5.4407525063 -3.8872888088 0.48975521326
          0.039463296533 -0.35160124302 -0.049854699522 1.7198706865 -2.8278183937 -0.21475809813
          4.0366296768 -3.4522235394 0.4025978446 0.4937120378 -0.38157430291 0.13632081449
          3.884472847 -4.7735176086 -0.60953891277 0.1550732404 -1.1263196468 -0.13597400486
          6.9234433174 -5.6146221161 9.3435102144e-07 3.8359320164 -2.2839887142 1.0272865295
          0 0 0 0 0 0
          3.879622221 -4.8645892143 -0.30721521378 2.7235970497 -1.8428848982 0.82496553659
          5.2982788086 -5.2273006439 6.6326674641e-07 0.11115285754 -1.2840481997 -0.080546662211
          0.93094348907 -0.42160072923 0.54115509987 0.036077726632 -0.38368913531 -3.1355384067e-07
          1.7052562237 -2.8654241562 -8.5499699765e-08 2.8620948792 -3.0943717957 0.31276661158
          1.0748207569 -1.3865040541 0.19523450732 3.8752646446 -4.8941507339 3.6823220739e-07
          1.8824865818 -1.4728373289 0.60930651426 0.1036503464 -1.3297321796 -3.5804507093e-07
          2.5103251934 -4.501704216 -0.48261341453 6.9261660576 -5.5833721161 0.42939954996
          5.4242997169 -3.7522194386 0.96450352669 0 0 0
          8.1810693741 -7.4153852463 -0.74212175608 0 0 0
          0 0 0 0.40476185083 -2.5347356796 -0.22828121483
          2.4651153088 -4.5949034691 -0.24311898649 8.2221450806 -7.4661316872 -0.3736461699
          6.4131650925 -7.076086998 -0.67713272572 5.2949318886 -5.1967029572 0.36844334006
          -0.57578009367 -0.29693707824 0.091007567942 0 0 0
          4.0251536369 -3.3239898682 0.79028403759 0.58075582981 -0.25497108698 0.3260436058
          0.35341775417 -2.6725406647 -0.12000370026 0.039463553578 -0.3516009748 0.049854114652
          -0.57529896498 -0.44931361079 0.05377363041 1.7198710442 -2.8278179169 0.21475793421
          6.4455060959 -7.1289048195 -0.3394099772 3.8796226978 -4.8645882607 0.30721598864
          2.4539539814 -4.6241312027 4.8771092054e-08 8.2248449326 -7.484770298 1.3436168729e-06
          -0.66168397665 -1.0439063311 0.096139349043 0.11115319282 -1.2840477228 0.080545954406
          0 0 0 4.8751330376 -6.7885780334 -0.61046016216
          1.1255215406 -1.2365843058 0.37690088153 2.8790757656 -2.9672493935 0.61511701345
          0.34600073099 -2.7129061222 -3.6003498849e-07 6.4529280663 -7.1477103233 1.0080378843e-06
          -0.53664070368 -0.50623631477 -4.4432746904e-07 -0.67054879665 -1.2012861967 0.037981458008
          4.8743405342 -6.8398599625 -0.30716326833 6.8857970238 -5.4916448593 0.85041832924
          0 0 0 0.86853462458 -4.294968605 -0.35023391247
          5.2633485794 -5.1060729027 0.73031193018 -0.66204470396 -1.2459528446 -4.304802701e-07
          0.81215310097 -4.3910322189 -0.17862121761 4.8749089241 -6.858458519 6.4554819801e-07
          0.080965682864 -0.20288324356 0.083548434079 2.4651157856 -4.5949025154 0.2431191057
          3.3479464054 -6.5333433151 -0.55324357748 8.2221460342 -7.4661312103 0.37364888191
          -0.83902215958 -2.6024672985 -0.1261253804 1.7632898092 -2.6962332726 0.42395597696
          0 0 0 0.35341820121 -2.6725401878 0.1200029999
          3.3076674938 -6.5791130066 -0.27814435959 -0.57529890537 -0.44931319356 -0.053774498403
          -0.83843368292 -2.6905851364 -0.11626726389 6.4455070496 -7.1289043427 0.33941203356
          3.8844738007 -4.773516655 0.60953974724 0.15507371724 -1.1263186932 0.13597334921
          9.3125209808 -9.4072465897 -0.65668362379 0 0 0
          0.80725383759 -4.4204206467 -2.9256207768e-07 7.4695920944 -9.1112613678 -0.63365244865
          9.3466377258 -9.4283561707 -0.33102422953 0 0 0
          0.046455677599 -0.74512416124 -0.076440170407 7.498260498 -9.1347818375 -0.31727737188
          3.3012712002 -6.5956449509 2.5724790476e-07 0.0032628790941 -0.73961859941 -0.01107277628
          -0.67054861784 -1.2012858391 -0.037982407957 -0.39363822341 -2.6353418827 1.4854405208e-06
          4.8743414879 -6.8398590088 0.30716457963 5.8102855682 -8.8757829666 -0.61509877443
          -0.050662152469 -1.593832612 -0.21464046836 9.3518400192 -9.4377536774 1.8305071308e-06
          0 0 0 -0.088229119778 -1.5757751465 -0.074412316084
          5.8183197975 -8.8970022202 -0.30802741647 7.5063657761 -9.1452226639 1.4333306808e-06
          0.0011022770777 -0.76887410879 1.0266920469e-07 2.5103261471 -4.5017027855 0.48261359334
          1.5390490294 -6.299902916 -0.48954132199 8.1810712814 -7.4153838158 0.74212449789
          0 0 0 -0.96792525053 -4.1461925507 -0.085196942091
          0.81215369701 -4.3910317421 0.17862065136 0.40476259589 -2.5347344875 0.22828057408
          6.413166523 -7.0760855675 0.67713487148 -0.57578015327 -0.29693630338 -0.091008365154
          -0.92303353548 -4.2500786781 -0.15731532872 1.4850678444 -6.3426232338 -0.25125312805
          3.3076682091 -6.5791125298 0.27814489603 -0.83846580982 -2.6905758381 0.11626288295
          5.8228621483 -8.9069261551 1.0058047337e-06 -0.0527902022 -1.591224432 2.1477050893e-07
          4.2414135933 -8.7086324692 -0.60098707676 0.051786888391 -2.8875305653 -0.29814371467
          -0.66168391705 -1.043905735 -0.096140258014 9.3466386795 -9.4283561707 0.33102792501
          4.8751344681 -6.7885766029 0.61046153307 0 0 0
          1.4891332388 -6.3567299843 -1.5223389482e-07 0.87894642353 -4.4278140068 -4.1319340198e-06
          4.2303543091 -8.7167196274 -0.307048738 7.4982609749 -9.1347808838 0.31728026271
          0.053253252059 -2.8661046028 -0.1479742527 0.003261882579 -0.73961848021 0.011072714813
          0.86853569746 -4.2949671745 0.35023340583 4.2323093414 -8.7279367447 5.4312044995e-07
          5.8183207512 -8.8970012665 0.30802944303 -0.088233649731 -1.5757769346 0.07441162318
          0.090789988637 -2.7701635361 -1.4713813243e-06 10.323856354 -11.377723694 -0.60208958387
          0 0 0 10.349463463 -11.385190964 -0.30329725146
          3.3479475975 -6.5333414078 0.55324417353 8.445110321 -11.106794357 -0.5973289609
          -0.83904784918 -2.6024522781 0.12611356378 1.950160861 -6.8310275078 -0.94236284494
          0.1249178797 -0.86274212599 -0.11503528059 -0.92307895422 -4.2500929832 0.15731395781
          1.4850686789 -6.3426222801 0.25125285983 0 0 0
          8.46986866 -11.116900444 -0.29868891835 1.7893526554 -6.5907020569 -0.16808442771
          0.083658710122 -0.86178314686 -0.049550637603 2.4397161007 -8.4471235275 -0.6652918458
          0.54631215334 -4.1690149307 -0.50625950098 9.3125228882 -9.4072446823 0.65668737888
          0 0 0 7.4695940018 -9.1112594604 0.63365542889
          10.356143951 -11.389993668 2.3971042538e-06 0.57956498861 -4.2050347328 -0.17810446024
          2.4209804535 -8.4208450317 -0.3164716661 0.046453781426 -0.74512422085 0.076439499855
          6.6896586418 -10.89862442 -0.59681397676 0.23070906103 -1.8088444471 -0.19665277004
          0 0 0 4.2303547859 -8.7167186737 0.30704984069
          0.053247462958 -2.8661062717 0.14797149599 8.4774961472 -11.122891426 1.9423598587e-06
          1.3701537848 -6.1392288208 -4.966940196e-06 6.7118940353 -10.906887054 -0.29977986217
          0.18508867919 -1.8154420853 -0.10254561901 0.083859428763 -0.86290073395 1.2610635736e-07
          5.8102874756 -8.8757810593 0.6151009202 -0.050668284297 -1.5938344002 0.21463763714
          2.4295954704 -8.4307184219 6.5543943606e-08 0.39764153957 -4.2972841263 -9.686825706e-07
          1.5390503407 -6.2999014854 0.48954111338 6.7180328369 -10.915172577 1.4555168946e-06
          0.17848238349 -1.8042621613 -1.437439181e-07 -0.96795541048 -4.1462030411 0.08519487828
          10.349464417 -11.38519001 0.30330207944 5.0341639519 -10.782629967 -0.6206484437
          0 0 0 0.38058361411 -2.937012434 -0.27062264085
          5.0605931282 -10.792703629 -0.31073465943 8.4698696136 -11.11689949 0.29869282246
          0.083657845855 -0.86178380251 0.049550693482 1.7893536091 -6.5907034874 0.16808073223
          0.33217674494 -2.961728096 -0.14674821496 4.2414155006 -8.7086305618 0.60098826885
          2.716930151 -8.9051990509 -0.84192991257 2.4209814072 -8.4208440781 0.31647181511
          0.051777839661 -2.8875322342 0.29814216495 0.57956147194 -4.2050352097 0.17810060084
          0.88219690323 -6.1445503235 -0.4331780076 2.9195451736 -8.9021139145 -0.30017578602
          5.0658903122 -10.806814194 9.306083939e-07 6.711894989 -10.906886101 0.2997828126
          0.18508733809 -1.8154432774 0.10254511237 0.94142025709 -6.1709804535 -0.29854437709
          0.31119057536 -2.9724833965 -5.9282007214e-07 11.280181885 -13.299525261 -0.57552939653
          0 0 0 0.13036373258 -0.88215523958 -0.097099974751
          2.8819587231 -8.8909978867 -1.1724115438e-06 3.7048079967 -10.689976692 -0.64573979378
          9.375658989 -13.02598381 -0.56705313921 10.323858261 -11.377721786 0.60209447145
          0 0 0 0 0 0
          1.0965902805 -6.1792907715 -2.3362933916e-06 0.54279905558 -4.3479332924 -0.32297128439
          11.296963692 -13.307654381 -0.28880375624 3.7471694946 -10.728197098 -0.29398784041
          9.3948516846 -13.038051605 -0.28281837702 8.4451122284 -11.106793404 0.59733295441
          0.097014531493 -0.90069109201 -0.042189791799 1.950163126 -6.8310279846 0.94236218929
          0.12491649389 -0.86274313927 0.1150348559 0.51508450508 -4.4109282494 -0.17563958466
          5.0605940819 -10.792702675 0.31073653698 0.33217537403 -2.9617290497 0.14674684405
          7.5279016495 -12.799876213 -0.55109477043 2.4397177696 -8.4471216202 0.66529208422
          0.5463039279 -4.1690144539 0.50625544786 0 0 0
          0.24337929487 -1.8695777655 -0.14566858113 11.303606987 -13.311842918 3.0442424759e-06
          0.094533145428 -0.90355461836 9.8605148935e-08 3.7466363907 -10.732880592 3.2707015407e-07
          7.5552253723 -12.815939903 -0.2770639956 6.6896605492 -10.898622513 0.5968170166
          9.4007263184 -13.043273926 2.5352198918e-06 0.23070678115 -1.8088464737 0.19665193558
          0.54077267647 -4.4080381393 -1.3494685618e-06 0.20981897414 -1.9046419859 -0.077174142003
          2.9195466042 -8.9021139145 0.30017384887 0.94141554832 -6.1709780693 0.29853996634
          1.7153367996 -8.5367097855 -0.34221118689 7.5612006187 -12.823079109 1.9970784706e-06
          0.19895634055 -1.9129760265 -2.5969105977e-08 1.6994663477 -8.6010475159 -0.21723215282
          5.8311810493 -12.619704247 -0.53411692381 0 0 0
          0.34604671597 -3.0392336845 -0.18766885996 11.296964645 -13.307653427 0.28880986571
          0.097014293075 -0.90069162846 0.042189903557 3.7471706867 -10.728196144 0.29398852587
          5.8725590706 -12.64693737 -0.26880931854 5.0341658592 -10.782628059 0.62065041065
          9.3948535919 -13.038050652 0.28282347322 3.1193585396 -10.833664894 -0.30945295095
          0.80815762281 -6.1315226555 -0.3307813108 0.38058134913 -2.9370141029 0.27062082291
          0.32140859962 -3.093064785 -0.098047740757 0.51508301497 -4.4109282494 0.17563724518
          3.1458618641 -10.960621834 -0.20335277915 0.82042217255 -6.2160172462 -0.15938185155
          1.6568546295 -8.4962615967 -2.044706207e-06 2.7169325352 -8.9051971436 0.84192824364
          7.5552268028 -12.81593895 0.27706801891 0.88219153881 -6.1445479393 0.43317613006
          5.8761606216 -12.656579971 1.4230898842e-06 0.20981861651 -1.9046427011 0.077174015343
          0.31638196111 -3.1039171219 -3.1032459447e-07 3.1481566429 -10.954642296 -3.5476125504e-07
          0.8002191782 -6.233174324 -1.5359195231e-06 0.46382039785 -4.4630804062 -0.20910741389
          4.4963564873 -12.448403358 -0.46602129936 11.280183792 -13.299523354 0.57553553581
          0 0 0 1.6994668245 -8.6010475159 0.21722857654
          0.13036330044 -0.88215613365 0.097099840641 0.45540988445 -4.530772686 -0.10812269896
          3.7048101425 -10.689974785 0.64574056864 9.37566185 -13.025981903 0.56705832481
          4.5298843384 -12.504547119 -0.24231940508 12.229810715 -15.20702076 -0.56819790602
          0 0 0 0.54279732704 -4.3479337692 0.32296934724
          12.238238335 -15.221897125 -0.28324729204 0.084351725876 -0.8789383769 -0.056498359889
          10.299201012 -14.922714233 -0.54515558481 5.8725600243 -12.646936417 0.26881217957
          0 0 0 0.32140833139 -3.0930655003 0.098047107458
          10.309161186 -14.94158268 -0.27251437306 0.065547801554 -0.90773767233 -0.024179004133
          3.1458632946 -10.96062088 0.2033520937 0.8204216361 -6.2160167694 0.15937915444
          7.5279040337 -12.799874306 0.55109888315 0.44599926472 -4.5485010147 -5.5355138784e-07
          4.531586647 -12.513533592 8.1176165168e-07 0.24337863922 -1.8695790768 0.1456682235
          2.3474056721 -11.098757744 -0.24683740735 0.16085594893 -1.8970136642 -0.080099210143
          8.3663978577 -14.643659592 -0.51370745897 1.1326947212 -8.2818098068 -0.24714912474
          12.242677689 -15.226836205 3.7698889628e-06 0 0 0
          2.284539938 -11.14731884 -0.15668828785 10.312607765 -14.947845459 3.2078628465e-06
          0.063640713692 -0.91447168589 1.0362462177e-07 8.3826799393 -14.671211243 -0.25434520841
          0.14369371533 -1.9421579838 -0.041662346572 1.173479557 -8.3551025391 -0.12566661835
          1.7153376341 -8.5367097855 0.34220948815 2.3548254967 -11.198939323 -1.4405776483e-06
          0.61056226492 -6.187394619 -0.1966125071 0.45540982485 -4.530772686 0.10812164098
          3.1752686501 -12.240692139 -0.35567763448 8.386961937 -14.677417755 2.622199645e-06
          5.8311834335 -12.619702339 0.53411984444 4.5298852921 -12.504545212 0.24232104421
          1.1829477549 -8.3795900345 -1.2329070387e-06 0.13834044337 -1.9548085928 1.008335957e-07
          0.34604620934 -3.0392348766 0.18766823411 12.238239288 -15.221895218 0.28325486183
          6.5396809578 -14.472359657 -0.44713902473 0.62143820524 -6.257651329 -0.10169839114
          0.23481608927 -3.0964167118 -0.098455347121 3.182653904 -12.308987617 -0.19825553894
          3.1193611622 -10.833662987 0.3094522953 0.80815684795 -6.1315221786 0.33077931404
          0 0 0 0.22234663367 -3.1546132565 -0.051440618932
          10.30916214 -14.941581726 0.27252081037 0.065547756851 -0.90773797035 0.024179168046
          6.5648326874 -14.502638817 -0.22929339111 0.62454164028 -6.2773752213 -5.7077420479e-07
          3.2049431801 -12.324812889 2.2038932457e-07 2.2845430374 -11.147317886 0.15668570995
          6.5688018799 -14.511888504 2.0205457076e-06 0.21727277339 -3.1715595722 4.414426158e-08
          8.3826808929 -14.671209335 0.25435048342 0.14369370043 -1.9421584606 0.04166251421
          1.1734793186 -8.3551015854 0.12566441298 0.46382027864 -4.463080883 0.20910654962
          4.4963588715 -12.448401451 0.4660230279 5.0724420547 -14.436486244 -0.43770053983
          12.229813576 -15.207018852 0.56820553541 0 0 0
          0.31284716725 -4.5280814171 -0.10888244957 0.084351658821 -0.87893903255 0.056498412043
          10.299203873 -14.922711372 0.54516208172 0.62143814564 -6.2576508522 0.10169734806
          3.1826553345 -12.308986664 0.19825598598 5.0936875343 -14.460439682 -0.21929417551
          1.6904582977 -10.498023033 -0.15015521646 0.30772441626 -4.5924377441 -0.055969826877
          0.22234670818 -3.1546137333 0.051440700889 6.5648336411 -14.502637863 0.22929745913
          1.7090506554 -10.552357674 -0.094654999673 2.5211584568 -12.250713348 -0.44202691317
          0.85269755125 -8.1518106461 -0.15845154226 13.186891556 -17.152387619 -0.56682837009
          0 0 0 11.217513084 -16.866895676 -0.54052424431
          2.3474111557 -11.098755836 0.24683536589 0.16085593402 -1.8970144987 0.080099292099
          8.3664007187 -14.643657684 0.51371276379 0.87283414602 -8.2111778259 -0.078506059945
          2.5443358421 -12.284564018 -0.16421687603 1.1326949596 -8.2818088531 0.24714756012
          13.18878746 -17.170009613 -0.28234869242 0 0 0
          0.3062531352 -4.6117959023 3.9949643593e-08 5.1020498276 -14.477703094 1.3885218095e-06
          0.019469004124 -0.86937963963 -0.0083583276719 11.218606949 -16.887210846 -0.26978009939
          0.016816619784 -0.90140730143 -0.0033461016137 1.699084878 -10.568032265 -6.9073860232e-07
          9.2597312927 -16.581264496 -0.50529950857 0.8724296093 -8.2316074371 -2.0000251766e-07
          2.5993833542 -12.339407921 -1.7834844357e-06 13.190056801 -17.175580978 4.5696197049e-06
          0 0 0 0.047111004591 -1.8922959566 -0.010987466201
          9.2556762695 -16.608636856 -0.25109639764 11.219917297 -16.893409729 3.953198302e-06
          0.61056256294 -6.1873950958 0.19661183655 3.1752712727 -12.240690231 0.35567814112
          0.016501698643 -0.90911477804 1.2928337867e-07 0.044048450887 -1.9403011799 -0.0056894347072
          6.539683342 -14.472356796 0.44714313745 0.23481623828 -3.0964176655 0.098455399275
          0.41539573669 -6.206155777 -0.10727369785 3.9384686947 -14.472076416 -0.47847121954
          0.30772459507 -4.592438221 0.055969931185 5.0936889648 -14.460438728 0.21929699183
          0.41857534647 -6.2667989731 -0.053955294192 3.9629342556 -14.499544144 -0.20882344246
          1.7090513706 -10.55235672 0.094653829932 9.2575912476 -16.613855362 3.3155774872e-06
          0.042780090123 -1.954808116 2.3350288814e-07 7.0927596092 -16.303415298 -0.43045186996
          0.87283426523 -8.2111768723 0.078505769372 2.5443408489 -12.284564018 0.16421484947
          13.188788414 -17.170009613 0.28235784173 0 0 0
          0.083487473428 -3.0993220806 -0.015290577896 7.0966615677 -16.335706711 -0.22256353498
          11.218607903 -16.887208939 0.26978802681 0.079375773668 -3.1584982872 -0.0077944514342
          0.41765403748 -6.28677845 2.3706731156e-07 3.9722411633 -14.508088112 6.7699807005e-07
          0.016816636547 -0.90140748024 0.0033463379368 9.2556781769 -16.608634949 0.25110304356
          7.1047563553 -16.342515945 2.6797763439e-06 0.078122973442 -3.1767344475 3.3338122307e-07
          5.0724449158 -14.436483383 0.43770343065 2.2699127197 -12.264656067 -0.26131185889
          0.044048536569 -1.9403014183 0.0056898836046 0.31284758449 -4.5280818939 0.10888260603
          1.1756024361 -10.169016838 -0.1212246716 2.2483022213 -12.349310875 -0.1210180521
          1.690459609 -10.498023033 0.15015478432 1.188100934 -10.220690727 -0.061285238713
          0.41857555509 -6.2667989731 0.053955800831 3.9629359245 -14.49954319 0.20882484317
          2.5211656094 -12.250713348 0.44202840328 0.8526982069 -8.1518106461 0.15845158696
          0.13020564616 -4.5304751396 -0.021642429754 5.5406861305 -16.217672348 -0.39568221569
          13.186894417 -17.152383804 0.56683760881 0 0 0
          11.217515945 -16.866893768 0.54053223133 0.12501379848 -4.5930695534 -0.011051255278
          2.256783247 -12.361125946 2.1315292997e-07 0.55421352386 -8.0790367126 -0.093555375934
          3.3462312222 -14.648718834 -0.29419419169 5.5686631203 -16.234703064 -0.19786034524
          0.019469115883 -0.86938005686 0.0083585279062 1.1962862015 -10.244247437 5.6653721003e-07
          7.0966629982 -16.335704803 0.2225689292 0.079375937581 -3.1584985256 0.0077951028943
          3.3635542393 -14.71497345 -0.17402105033 0.56317955256 -8.1287498474 -0.04736064747
          9.2597341537 -16.581262589 0.5053062439 0.12326473743 -4.6131219864 4.9426103033e-07
          5.5712208748 -16.243116379 2.0839720491e-06 0.047111235559 -1.8922965527 0.010987861082
          3.3617069721 -14.70852375 -1.4615973498e-07 14.135738373 -19.149057388 -0.56571662426
          0 0 0 0.56565219164 -8.1475028992 7.5230963148e-07
          14.134514809 -19.164113998 -0.28267997503 0 0 0
          2.248303175 -12.349310875 0.12101823092 12.13353157 -18.872503281 -0.54666948318
          0.41539642215 -6.2061562538 0.107274279 3.9384717941 -14.472073555 0.47847276926
          -0.051249369979 -0.8560962081 0.041885141283 1.188100934 -10.220689774 0.061286367476
          12.130489349 -18.888061523 -0.27220961452 -0.037362460047 -0.8869574666 0.01793147251
          7.0927624702 -16.303411484 0.43045732379 14.133834839 -19.169370651 5.4392794482e-06
          0.12501400709 -4.5930695534 0.011052230373 10.113789558 -18.620973587 -0.52546525002
          -0.081143639982 -1.8592026234 0.059756942093 5.5686645508 -16.234701157 0.19786453247
          0 0 0 4.5340280533 -16.103586197 -0.37316760421
          0.18680366874 -6.1922931671 -0.029937103391 0.083487853408 -3.0993227959 0.01529118605
          -0.069837614894 -1.9071593285 0.031196728349 10.104348183 -18.633195877 -0.26255989075
          12.130084991 -18.893169403 4.76459536e-06 3.3635566235 -14.714972496 0.17402090132
          0.1816521734 -6.2502660751 -0.015556052327 4.5545296669 -16.128696442 -0.18850314617
          0.56317967176 -8.1287498474 0.047362148762 -0.036228749901 -0.89427256584 1.6642042056e-07
          1.4517394304 -12.189778328 -0.11409961432 10.104128838 -18.639812469 4.0714071474e-06
          2.2699141502 -12.264657021 0.26131162047 -0.066300950944 -1.9211221933 3.4622135558e-07
          0.18071313202 -6.2699112892 8.0845535422e-07 1.4714928865 -12.255779266 -0.053114004433
          4.5545325279 -16.134428024 1.4110357824e-06 1.1756031513 -10.169016838 0.12122584134
          14.134515762 -19.164112091 0.28269088268 8.0593624115 -18.358980179 -0.53777050972
          0.71536338329 -10.055109978 -0.077583961189 0 0 0
          -0.087575435638 -3.0482876301 0.069970533252 2.6746826172 -14.871453285 -0.30605611205
          -0.083276942372 -3.10978508 0.036271028221 8.0461339951 -18.365797043 -0.25516796112
          12.130491257 -18.888061523 0.27221915126 0.72953224182 -10.095054626 -0.038172006607
          2.6490728855 -14.882171631 -0.14892439544 -0.037362422794 -0.88695758581 -0.017931157723
          0.1302061975 -4.5304756165 0.021643368527 5.5406889915 -16.217670441 0.39568647742
          1.4688391685 -12.269854546 1.4993736386e-06 0.55421435833 -8.0790376663 0.0935568735
          3.3462352753 -14.648716927 0.2941943109 8.0500612259 -18.37181282 3.3605238059e-06
          10.10435009 -18.63319397 0.26256805658 0.73285681009 -10.112658501 1.6271844743e-06
          -0.069837510586 -1.9071594477 -0.031196050346 -0.081492885947 -3.1280953884 5.3971496072e-07
          0.18165239692 -6.2502660751 0.015557643957 4.5545315742 -16.128694534 0.18850600719
          2.6731014252 -14.911131859 -6.1121647832e-07 3.4431083202 -15.982906342 -0.31905540824
          0.25302046537 -8.0428094864 -0.039546079934 3.4467608929 -16.014829636 -0.16797372699
          0.24980539083 -8.089600563 -0.021337788552 14.135741234 -19.149053574 0.56572759151
          0 0 0 1.4714926481 -12.255778313 0.053116798401
          -0.080680809915 -4.4744143486 0.066608287394 6.2235360146 -18.01074791 -0.31951770186
          -0.086148805916 -4.5413732529 0.033858921379 12.133535385 -18.872499466 0.54667907953
          -0.051249168813 -0.85609638691 -0.041884828359 6.2408795357 -17.991027832 -0.17210017145
          8.0461359024 -18.365797043 0.25517472625 0.72953212261 -10.095054626 0.038175180554
          -0.08327678591 -3.10978508 -0.036269970238 2.6490745544 -14.882170677 0.14892299473
          3.4563364983 -16.023359299 7.9339554304e-07 0.25003877282 -8.1081161499 1.3614132968e-06
          10.113792419 -18.620969772 0.52547347546 -0.081143304706 -1.859202981 -0.059756305069
          4.5340313911 -16.10358429 0.37317055464 -0.086689963937 -4.5623531342 7.7447293734e-07
          0.1868044138 -6.192293644 0.029938625172 6.2388706207 -17.995132446 2.9026346056e-06
          15.075338364 -21.175706863 -0.56545174122 0 0 0
          1.4517400265 -12.189779282 0.11410205066 3.4467635155 -16.014827728 0.16797532141
          0 0 0 13.039788246 -20.902345657 -0.54997241497
          0.89208352566 -12.055328369 -0.047383062541 0.24980553985 -8.089600563 0.021340448409
          -0.11781857163 -0.84391587973 0.086309984326 1.7683407068 -14.294096947 -0.011458089575
          15.073429108 -21.187936783 -0.28287100792 8.0593652725 -18.358978271 0.53777736425
          13.037351608 -20.913887024 -0.27507656813 -0.087614379823 -0.86726152897 0.03672562167
          0.71536403894 -10.055109978 0.077586866915 0.91255331039 -12.094029427 -0.022833105177
          -0.087574988604 -3.0482878685 -0.069969542325 5.0413312912 -17.857572556 -0.36064469814
          -0.086148619652 -4.5413732529 -0.033857405186 2.6746857166 -14.871450424 0.30605438352
          -0.073775276542 -6.1477365494 0.048529747874 6.2408809662 -17.991025925 0.1721060127
          1.7883447409 -14.365667343 -0.041711844504 -0.087724529207 -6.2095370293 0.024185620248
          5.0429706573 -17.854940414 -0.18423229456 10.996229172 -20.637779236 -0.53925263882
          15.072424889 -21.192193985 6.3716720433e-06 -0.20403122902 -1.8034285307 0.13111667335
          0 0 0 10.992465019 -20.647073746 -0.2694118619
          -0.17502804101 -1.8453332186 0.067728981376 13.036381721 -20.918165207 5.6350731938e-06
          2.8655745983 -16.220230103 -0.37128612399 0.91822457314 -12.112300873 2.9325965443e-06
          1.7847255468 -14.377964973 2.8443159863e-06 0.32428723574 -10.003692627 -0.043562158942
          -0.085104547441 -0.87326872349 2.0558195502e-07 2.8879675865 -16.233579636 -0.15659867227
          5.0508332253 -17.864040375 2.2498604721e-06 0.32890847325 -10.037900925 -0.024293674156
          -0.090486496687 -6.2297310829 1.0944668247e-06 3.4431128502 -15.982903481 0.31905713677
          10.991177559 -20.650857925 4.88081605e-06 0.25302129984 -8.0428094864 0.039548557252
          -0.1670679003 -1.8565466404 4.2970742697e-07 8.9569282532 -20.375774384 -0.53029346466
          15.073431015 -21.187936783 0.28288376331 2.8771703243 -16.245603561 1.0780353676e-07
          -0.26698249578 -2.9468502998 0.16440606117 -0.080680266023 -4.4744148254 -0.066606864333
          0.33210459352 -10.054868698 2.2145202365e-06 6.2235393524 -18.010744095 0.31952366233
          0 0 0 8.9540891647 -20.381397247 -0.26565679908
          -0.24988044798 -3.0091347694 0.085141316056 13.037352562 -20.913885117 0.27508786321
          0.91255229712 -12.094029427 0.022838633507 1.7883430719 -14.365666389 0.041716739535
          -0.08761434257 -0.86726152897 -0.03672522679 5.0429720879 -17.854938507 0.18423677981
          -0.087724357843 -6.2095365524 -0.024183481932 10.992466927 -20.647071838 0.26942163706
          8.9508094788 -20.384950638 4.1144326133e-06 4.0450701714 -17.758907318 -0.37155768275
          -0.077553339303 -8.0131549835 0.016713684425 -0.24377401173 -3.0255317688 6.5772383095e-07
          -0.1750279516 -1.8453332186 -0.06772813946 -0.091781422496 -8.0686340332 0.0080708116293
          2.8879685402 -16.233577728 0.15659871697 4.0422739983 -17.785354614 -0.17796087265
          0.32890829444 -10.037900925 0.024297960103 6.3528747559 -19.350261688 -0.26725801826
          15.075341225 -21.175704956 0.56546455622 0 0 0
          -0.31013402343 -4.3626790047 0.16911132634 6.3546357155 -19.303405762 -0.16933785379