<?xml version="1.0"?>
<VTKFile type="UnstructuredGrid" version="0.1" byte_order="LittleEndian" header_type="UInt32" compressor="vtkZLibDataCompressor">
  <UnstructuredGrid>
    <Piece NumberOfPoints="6405" NumberOfCells="4800">
      <PointData>
        <DataArray type="Float32" Name="DISPLACEMENT" NumberOfComponents="3" ComponentName0="X-DISPLACEMENT" ComponentName1="Y-DISPLACEMENT" ComponentName2="Z-DISPLACEMENT" format="ascii" RangeMin="0" RangeMax="283.27874179">
          0 0 0 0 0 0
          2.3538656235 -1.4073281288 -1.0744941235 0 0 0
          1.4603340626 -0.80056524277 -0.78790593147 0 0 0
          2.156981945 -1.5735948086 -0.42333206534 1.269977808 -0.94095802307 -0.32012885809
          0 0 0 4.2293815613 -2.7418813705 -1.0880724192
          0 0 0 4.1713786125 -2.9253630638 -0.55857205391
          2.9429283142 -2.2780268192 -0.88082259893 0 0 0
          0 0 0 2.1649034023 -1.6242498159 2.4469281712e-08
          0.94908797741 -0.48747873306 -0.53204274178 1.2634890079 -0.96382951736 6.7641230395e-09
          2.8752086163 -2.4242265224 -0.44948735833 0.80327826738 -0.62102729082 -0.21568781137
          4.1232075691 -2.9749894142 7.0662508733e-08 1.962906599 -1.8879754543 -0.66508489847
          0 0 0 2.8362286091 -2.4699232578 3.4468666144e-08
          1.8694458008 -2.0192906857 -0.34024733305 0 0 0
          5.8694410324 -4.4856514931 -0.99981182814 0 0 0
          0.79456007481 -0.6362336278 -1.6394302804e-08 0 0 0
          0 0 0 2.156981945 -1.5735948086 0.42333212495
          4.3045148849 -4.069437027 -0.85892534256 5.8881402016 -4.6036219597 -0.51160693169
          0.29040122032 -0.30017876625 -0.23937384784 1.269977808 -0.94095796347 0.32012885809
          4.3153276443 -4.1790647507 -0.43702751398 0.1552709341 -0.45128422976 -0.11941730976
          1.836809516 -2.0548601151 -9.6540944128e-09 4.1713786125 -2.9253630638 0.55857223272
          0 0 0 0 0 0
          0.75819784403 -1.6451240778 -0.45893532038 3.0422229767 -3.7721502781 -0.72381138802
          5.8709068298 -4.6478791237 1.4121890501e-07 2.8752086163 -2.424226284 0.44948744774
          3.0179429054 -3.8647098541 -0.37242633104 0.80327832699 -0.62102729082 0.21568778157
          4.30554533 -4.2167582512 8.4403382061e-08 0.65054041147 -1.7635600567 -0.24868617952
          0.13382147253 -0.46658951044 -4.3082238221e-08 0 0 0
          7.3284344673 -6.381770134 -0.87909442186 0 0 0
          5.5857834816 -6.0071005821 -0.7940466404 1.86944592 -2.0192906857 0.34024733305
          7.3729434013 -6.4559078217 -0.44828987122 2.3538656235 -1.4073281288 1.0744942427
          0 0 0 0 0 0
          0.63149178028 -1.7970379591 -5.9996914104e-08 3.0079026222 -3.9006724358 1.8239163069e-08
          -0.022673752159 -0.38896355033 -0.14066852629 5.6260390282 -6.0809621811 -0.4022449255
          1.4603340626 -0.80056518316 0.78790593147 1.5863500834 -3.4813072681 -0.66829437017
          0 0 0 5.8881402016 -4.6036214828 0.51160722971
          -0.14247874916 -0.49816998839 -0.068159423769 1.5549901724 -3.5399546623 -0.32349905372
          4.3153276443 -4.1790647507 0.43702766299 0.15527099371 -0.45128419995 0.11941723526
          4.0655655861 -5.7234687805 -0.72600638866 0.25281569362 -1.6407879591 -0.48774856329
          7.3736510277 -6.4847021103 2.3289828732e-07 4.2293815613 -2.7418811321 1.0880726576
          0 0 0 0 0 0
          4.0904684067 -5.8022150993 -0.36531323195 2.9429285526 -2.2780265808 0.88082271814
          5.6318998337 -6.1114993095 1.568664203e-07 0.1981536597 -1.6760867834 -0.24759824574
          0.94908803701 -0.48747864366 0.53204274178 -0.12008349597 -0.54934626818 -1.0945897344e-07
          1.5555107594 -3.5746388435 -5.4613789047e-08 3.0179429054 -3.8647096157 0.37242639065
          0.65054059029 -1.7635599375 0.24868607521 4.0924901962 -5.8361492157 7.4769957337e-08
          1.9629067183 -1.8879753351 0.66508495808 0.28042683005 -1.7357466221 -1.9340829738e-07
          2.8454332352 -5.5188565254 -0.63986593485 7.3729438782 -6.4559073448 0.44829034805
          5.8694415092 -4.4856514931 0.99981218576 0 0 0
          8.6512804031 -8.3407449722 -0.78511446714 0 0 0
          0 0 0 1.0131280422 -3.2936735153 -0.71783280373
          2.8749699593 -5.6232061386 -0.29869151115 8.6956453323 -8.3916749954 -0.39704969525
          6.791469574 -7.9780015945 -0.7223675251 5.626039505 -6.0809617043 0.40224525332
          0.33561724424 -0.82061970234 -0.34330242872 0 0 0
          4.3045153618 -4.069437027 0.85892552137 0.29040130973 -0.30017864704 0.23937380314
          1.1415677071 -3.3516478539 -0.29760441184 -0.14247860014 -0.49816989899 0.068159244955
          0.24748589098 -0.83531856537 -0.12303233147 1.5549902916 -3.5399546623 0.32349896431
          6.8339557648 -8.0358953476 -0.36421579123 4.0904688835 -5.8022150993 0.36531338096
          2.8701355457 -5.6479644775 -2.7645398859e-08 8.7040891647 -8.4120016098 3.4473052324e-07
          0.55592107773 -1.9226917028 -0.47885197401 0.19815400243 -1.6760866642 0.24759793282
          0 0 0 5.1538825035 -7.6302614212 -0.64728146791
          0.75819802284 -1.6451238394 0.45893526077 3.0422232151 -3.7721500397 0.72381144762
          1.1994758844 -3.4141452312 -2.0626472974e-07 6.8444194794 -8.0586128235 2.5178209739e-07
          0.25102114677 -0.86278569698 -9.6639247715e-08 0.51395320892 -1.962949276 -0.2329210341
          5.1876759529 -7.7056760788 -0.32825127244 7.3284349442 -6.381770134 0.8790948987
          0 0 0 2.1022570133 -5.5443606377 -0.27148091793
          5.5857834816 -6.0071005821 0.79404699802 0.50199699402 -1.9806342125 -1.6135561509e-07
          2.1130177975 -5.7164363861 -0.16968712211 5.1933269501 -7.7315649986 1.5011373478e-07
          -0.022673597559 -0.38896340132 0.14066842198 2.8749699593 -5.6232061386 0.29869145155
          3.7236888409 -7.2865018845 -0.51142799854 8.695646286 -8.3916749954 0.39705041051
          0.75656527281 -3.4912469387 -0.47202223539 1.586350441 -3.4813070297 0.66829431057
          0 0 0 1.1415683031 -3.3516478539 0.29760399461
          3.7342538834 -7.3992710114 -0.26221463084 0.24748595059 -0.83531850576 0.1230321601
          0.7927852273 -3.5622668266 -0.24262915552 6.8339557648 -8.0358953476 0.36421632767
          4.0655660629 -5.7234683037 0.72600656748 0.25281617045 -1.6407878399 0.48774844408
          9.874663353 -10.349944115 -0.72011369467 0 0 0
          2.0959820747 -5.7276759148 -1.7324848045e-07 7.936355114 -10.008918762 -0.6682138443
          9.9094238281 -10.390933037 -0.36220094562 0 0 0
          0.32427835464 -0.98954606056 -0.28332072496 7.9692726135 -10.056325912 -0.33488833904
          3.732915163 -7.4244294167 3.3927960885e-08 0.24549980462 -1.0215902328 -0.1226715073
          0.51395326853 -1.962949276 0.23292072117 0.80449557304 -3.5791087151 -1.8176760364e-07
          5.1876764297 -7.7056760788 0.32825157046 6.1825122833 -9.7074451447 -0.60778951645
          0.51075732708 -2.2158255577 -0.36703458428 9.9190301895 -10.406910896 4.7729179187e-07
          0 0 0 0.47245389223 -2.2676417828 -0.19027231634
          6.2038912773 -9.7656393051 -0.30407291651 7.9795022011 -10.07472229 3.7090140381e-07
          0.24331702292 -1.0260697603 -8.1099940985e-08 2.845433712 -5.5188560486 0.63986587524
          2.1946148872 -7.0602946281 -0.28095075488 8.6512813568 -8.3407440186 0.7851151824
          0 0 0 0.83836406469 -5.6930274963 -0.240270257
          2.1130177975 -5.7164359093 0.16968679428 1.0131287575 -3.2936735153 0.7178324461
          6.7914700508 -7.9780011177 0.72236806154 0.33561727405 -0.82061964273 0.34330230951
          1.0054092407 -5.8315029144 -0.1468937993 2.1794390678 -7.2041149139 -0.17454081774
          3.7342541218 -7.3992705345 0.26221469045 0.7927852273 -3.5622668266 0.24262876809
          6.2115941048 -9.7864084244 2.5439291562e-07 0.46157974005 -2.2777452469 -1.5364001626e-07
          4.5902647972 -9.4804801941 -0.52319711447 0.6479601264 -3.8273293972 -0.36781403422
          0.55592107773 -1.9226915836 0.47885167599 9.9094238281 -10.390933037 0.36220189929
          5.1538829803 -7.6302609444 0.64728182554 0 0 0
          2.1913611889 -7.2345347404 -9.8539622684e-08 1.1138727665 -5.9136958122 -1.4962290606e-07
          4.5855469704 -9.544960022 -0.26526018977 7.9692730904 -10.056324959 0.3348890841
          0.65968126059 -3.8798031807 -0.18236601353 0.24549981952 -1.0215902328 0.12267135829
          2.1022572517 -5.544359684 0.27148061991 4.5918397903 -9.5699043274 1.2516080972e-07
          6.2038917542 -9.7656393051 0.30407342315 0.47245392203 -2.2676417828 0.19027200341
          0.65592700243 -3.8919830322 -2.2255879628e-07 11.022080421 -12.410955429 -0.67902582884
          0 0 0 11.046959877 -12.44866848 -0.34032088518
          3.7236893177 -7.2865014076 0.51142805815 8.9978981018 -12.099636078 -0.63115692139
          0.75656527281 -3.4912469387 0.47202178836 0.7476426363 -6.9491200447 0.01324001234
          0.26297464967 -1.0973517895 -0.21998474002 1.0054090023 -5.8315024376 0.14689329267
          2.1794393063 -7.2041149139 0.17454062402 0 0 0
          9.0220174789 -12.14094162 -0.31521466374 1.1641335487 -7.1239595413 -0.11203089356
          0.20223857462 -1.1343634129 -0.092390626669 2.7589299679 -9.2457799911 -0.47632953525
          0.94219148159 -5.7202634811 -0.29217213392 9.874663353 -10.349944115 0.72011470795
          0 0 0 7.9363555908 -10.008917809 0.66821455956
          11.055228233 -12.462821007 6.3450852394e-07 0.95246958733 -5.7365112305 -0.14225326478
          2.7416572571 -9.2979469299 -0.22540822625 0.32427829504 -0.98954606056 0.28332060575
          7.104490757 -11.856716156 -0.5834966898 0.43730115891 -2.4189338684 -0.27974757552
          0 0 0 4.5855469704 -9.5449590683 0.26526045799
          0.65968126059 -3.8798031807 0.18236556649 9.030081749 -12.156644821 5.1734713225e-07
          1.3646781445 -7.273203373 -3.5869311432e-07 7.1248822212 -11.900045395 -0.29163098335
          0.40462943912 -2.4687194824 -0.1424946785 0.1999412477 -1.141710639 -6.4144586531e-08
          6.1825127602 -9.7074451447 0.60779005289 0.51075726748 -2.2158255577 0.36703431606
          2.7613286972 -9.3249692917 -8.1935676022e-09 0.95893889666 -5.7674555779 -3.4673607274e-07
          2.1946153641 -7.0602941513 0.28095060587 7.1308479309 -11.918039322 3.8896328647e-07
          0.39135435224 -2.4815905094 -1.3091307949e-07 0.83836394548 -5.6930265427 0.24026957154
          11.046960831 -12.44866848 0.34032216668 5.321867466 -11.725394249 -0.54842954874
          0 0 0 0.61560100317 -3.9977207184 -0.28927773237
          5.3349785805 -11.769564629 -0.27309390903 9.0220184326 -12.140940666 0.31521570683
          0.20223858953 -1.1343634129 0.09239050746 1.1641333103 -7.1239590645 0.11203025281
          0.60499310493 -4.0445041656 -0.14636747539 4.590265274 -9.4804792404 0.52319741249
          2.4020674229 -9.6491174698 -0.6720020771 2.7416574955 -9.2979469299 0.22540822625
          0.6479601264 -3.8273293972 0.36781361699 0.95246964693 -5.7365107536 0.14225263894
          1.3374410868 -7.381313324 -0.45252612233 2.2401399612 -9.4332838058 -0.27232408524
          5.3393511772 -11.792135239 2.4889916972e-07 7.1248822212 -11.900045395 0.29163178802
          0.40462946892 -2.4687194824 0.14249442518 1.2703496218 -7.4257969856 -0.1474519372
          0.59613966942 -4.0581068993 -2.0963929614e-07 12.118427277 -14.521100998 -0.65456515551
          0 0 0 0.20265088975 -1.1673613787 -0.16012962162
          2.0051875114 -9.2942142487 -2.53195509e-07 3.7565414906 -11.65435791 -0.5305172205
          9.9986104965 -14.218073845 -0.60313522816 11.022081375 -12.410955429 0.67902714014
          0 0 0 0 0 0
          1.2755712271 -7.5233097076 -4.053382554e-07 0.84340709448 -5.76040411 -0.29203760624
          12.13506031 -14.560677528 -0.32757362723 3.776444912 -11.712386131 -0.23904010653
          10.016572952 -14.260616302 -0.3005759716 8.9978981018 -12.099636078 0.63115793467
          0.15782125294 -1.2031821012 -0.066299334168 0.74764251709 -6.9491195679 -0.013240581378
          0.26297459006 -1.0973519087 0.21998463571 0.82680624723 -5.8026008606 -0.14809642732
          5.3349790573 -11.769563675 0.27309441566 0.60499316454 -4.0445041656 0.14636707306
          7.9488372803 -13.984642029 -0.54611253738 2.7589306831 -9.2457790375 0.47632956505
          0.94219154119 -5.7202634811 0.29217168689 0 0 0
          0.35580733418 -2.530349493 -0.2027322948 12.141577721 -14.574813843 8.1967345977e-07
          0.15533514321 -1.2112420797 -3.8460743923e-08 3.7770190239 -11.727302551 8.9715960883e-08
          7.9706306458 -14.028749466 -0.27335381508 7.1044912338 -11.856716156 0.58349752426
          10.02217865 -14.27546978 6.9258521762e-07 0.4373011291 -2.4189341068 0.27974736691
          0.81901860237 -5.8224430084 -2.9384085565e-07 0.32840186357 -2.5782804489 -0.10319817811
          2.2401401997 -9.4332828522 0.272323668 1.2703498602 -7.4257965088 0.14745119214
          1.2978147268 -9.8211135864 -0.47377893329 7.9753637314 -14.044232368 5.5419383216e-07
          0.31741201878 -2.5921502113 -8.1111373618e-08 1.3548288345 -9.8212270737 -0.27683708072
          6.0367159843 -13.829507828 -0.4918923676 0 0 0
          0.50814735889 -4.0992031097 -0.21934172511 12.13506031 -14.560677528 0.32757526636
          0.15782126784 -1.2031822205 0.066299259663 3.7764451504 -11.712385178 0.23904030025
          6.0643320084 -13.876582146 -0.24597378075 5.3218684196 -11.725393295 0.54843008518
          10.016573906 -14.260616302 0.30057734251 2.7026724815 -11.789991379 -0.25133234262
          1.012786746 -7.7151947021 -0.32411023974 0.61560100317 -3.9977207184 0.28927740455
          0.49323141575 -4.1504845619 -0.11208842695 0.82680636644 -5.8026008606 0.14809587598
          2.7104411125 -11.906173706 -0.16229335964 1.0052267313 -7.7604532242 -0.16863319278
          1.3858704567 -9.7450780869 -4.3381888304e-07 2.4020681381 -9.6491165161 0.67200171947
          7.9706311226 -14.028749466 0.27335494757 1.3374413252 -7.3813128471 0.45252558589
          6.0654144287 -13.89209938 4.0556230374e-07 0.32840189338 -2.5782806873 0.10319802165
          0.4859482944 -4.1666398048 -1.3239412056e-07 2.7090661526 -11.909198761 -8.5198806232e-08
          1.0071614981 -7.7675042152 -3.7119551166e-07 0.66785186529 -5.8745880127 -0.23229677975
          4.4147081375 -13.712491989 -0.4091309011 12.11842823 -14.521100044 0.65456682444
          0 0 0 1.3548293114 -9.8212270737 0.27683624625
          0.20265087485 -1.1673614979 0.16012956202 0.65644186735 -5.9252552986 -0.11779527366
          3.7565422058 -11.654356956 0.53051745892 9.9986114502 -14.218072891 0.60313665867
          4.43029356 -13.772751808 -0.21165862679 13.194972992 -16.694648743 -0.6436598897
          0 0 0 0.84340715408 -5.76040411 0.2920371592
          13.204523087 -16.738946915 -0.32094344497 0.13894866407 -1.2037727833 -0.10414084047
          10.979049683 -16.387540817 -0.58170449734 6.0643324852 -13.876582146 0.24597461522
          0 0 0 0.49323147535 -4.1504845619 0.11208818108
          10.989584923 -16.434484482 -0.29054823518 0.10944030434 -1.2385797501 -0.042792759836
          2.7104415894 -11.906173706 0.16229321063 1.0052269697 -7.7604527473 0.16863250732
          7.9488382339 -13.984641075 0.54611366987 0.65297186375 -5.9419159889 -1.8964705362e-07
          4.4282569885 -13.786637306 2.5092913347e-07 0.35580733418 -2.5303497314 0.20273217559
          1.7112293243 -12.040932655 -0.42497041821 0.25103962421 -2.5888440609 -0.13207881153
          8.7742767334 -16.116107941 -0.51466429234 1.2258253098 -9.9156904221 -0.32776761055
          13.208800316 -16.75353241 1.0343997019e-06 0 0 0
          1.6471321583 -11.990362167 -0.20259365439 10.993100166 -16.449836731 8.9688262506e-07
          0.10753144324 -1.2467101812 -1.6146699533e-09 8.7892036438 -16.16708374 -0.2542797029
          0.23157075047 -2.63651824 -0.067205525935 1.1991970539 -9.9682970047 -0.18685440719
          1.2978154421 -9.8211126328 0.47377818823 1.6722812653 -12.016533852 -2.7925597124e-07
          0.84414643049 -7.8500266075 -0.25008353591 0.65644192696 -5.9252552986 0.11779491603
          2.7547879219 -13.552823067 -0.31034711003 8.792798996 -16.180749893 7.4942971651e-07
          6.036716938 -13.829506874 0.49189320207 4.4302940369 -13.772751808 0.21165913343
          1.2011740208 -9.9767589569 -4.253510042e-07 0.22385977209 -2.651001215 -2.9287365866e-09
          0.5081474185 -4.0992035866 0.21934151649 13.204523087 -16.738946915 0.32094550133
          6.6695027351 -15.977758408 -0.42265206575 0.82807457447 -7.90564394 -0.12799453735
          0.36243331432 -4.1667265892 -0.1465985328 2.7483692169 -13.617927551 -0.16870841384
          2.7026734352 -11.789991379 0.25133219361 1.0127869844 -7.7151942253 0.3241096735
          0 0 0 0.35042691231 -4.2201094627 -0.074760951102
          10.989585876 -16.434484482 0.29055002332 0.10944031924 -1.2385798693 0.042792759836
          6.6879787445 -16.021558762 -0.21509982646 0.82572817802 -7.9234323502 -2.4686917754e-07
          2.7643966675 -13.637688637 1.0732587441e-07 1.6471326351 -11.990362167 0.20259305835
          6.6894369125 -16.034797668 5.9327493318e-07 0.34536391497 -4.2370114326 -1.2591973686e-08
          8.7892045975 -16.16708374 0.25428119302 0.23157078028 -2.63651824 0.067205525935
          1.1991974115 -9.9682970047 0.18685361743 0.6678519845 -5.8745880127 0.23229649663
          4.4147086143 -13.712491035 0.40913143754 4.8921527863 -15.991329193 -0.39384356141
          13.194973946 -16.694648743 0.64366197586 0 0 0
          0.48349237442 -5.9453234673 -0.15830993652 0.13894869387 -1.2037729025 0.10414085537
          10.979049683 -16.387540817 0.58170634508 0.82807475328 -7.90564394 0.12799407542
          2.7483696938 -13.617927551 0.16870862246 4.9008693695 -16.017967224 -0.19562977552
          1.2935949564 -12.292904854 -0.42508432269 0.47321218252 -6.001619339 -0.081256501377
          0.35042694211 -4.2201094627 0.074760936201 6.6879792213 -16.021558762 0.21510101855
          1.3074954748 -12.325837135 -0.25291395187 2.0861837864 -14.020612717 -0.62333315611
          1.0227693319 -10.043301582 -0.28816264868 14.269230843 -18.964654922 -0.63856232166
          0 0 0 11.949445724 -18.655982971 -0.57446378469
          1.711230278 -12.040932655 0.42496979237 0.25103968382 -2.5888442993 0.13207884133
          8.7742776871 -16.116107941 0.51466584206 1.0165705681 -10.108005524 -0.15332491696
          2.1565728188 -13.972107887 -0.21241040528 1.2258256674 -9.9156894684 0.32776704431
          14.273077011 -19.010725021 -0.31825739145 0 0 0
          0.47019693255 -6.0203146935 -3.2932348404e-08 4.9013929367 -16.036521912 4.3552140028e-07
          0.069381386042 -1.2177714109 -0.049073640257 11.952796936 -18.704030991 -0.28654792905
          0.055307783186 -1.2525459528 -0.020030431449 1.3232725859 -12.352437973 -4.6084389282e-07
          9.6457958221 -18.373268127 -0.50269180536 1.0277329683 -10.131059647 -2.8828785048e-07
          2.1410140991 -14.001029968 -3.6757316479e-07 14.274766922 -19.025688171 1.2789938637e-06
          0 0 0 0.1296505481 -2.6131231785 -0.062244195491
          9.6457500458 -18.424995422 -0.24964082241 11.954609871 -18.719213486 1.129326165e-06
          0.84414660931 -7.8500270844 0.25008320808 2.7547888756 -13.552822113 0.31034734845
          0.05425022915 -1.2606688738 4.7738744513e-08 0.11956757307 -2.6611325741 -0.031589027494
          6.669503212 -15.977758408 0.42265328765 0.36243337393 -4.166727066 0.1465985477
          0.61046987772 -7.9280028343 -0.17508538067 3.4298560619 -16.06378746 -0.43971437216
          0.47321224213 -6.001619339 0.081256449223 4.9008698463 -16.017967224 0.19563066959
          0.60355770588 -7.9882712364 -0.091259039938 3.4349842072 -16.084075928 -0.18815760314
          1.3074959517 -12.325837135 0.2529130578 9.6480903625 -18.438489914 9.7161807844e-07
          0.1155763492 -2.6757597923 1.0044664123e-07 7.1697030067 -18.12802124 -0.40571278334
          1.0165708065 -10.108005524 0.15332439542 2.1565732956 -13.972107887 0.21240985394
          14.273077011 -19.010725021 0.31825995445 0 0 0
          0.19329459965 -4.1946048737 -0.071039780974 7.1770682335 -18.177072525 -0.20649026334
          11.952796936 -18.704030991 0.28655019403 0.18559028208 -4.2501044273 -0.036458250135
          0.60395747423 -8.0093584061 -5.8937924763e-08 3.4362785816 -16.093151093 2.7419895332e-07
          0.055307798088 -1.252546072 0.020030526444 9.6457500458 -18.424995422 0.24964277446
          7.181781292 -18.188581467 8.1314277622e-07 0.1829572767 -4.2677898407 1.4166201368e-07
          4.8921537399 -15.991328239 0.39384448528 1.2883800268 -14.402687073 -0.5471740365
          0.11956760287 -2.6611325741 0.031589232385 0.48349243402 -5.9453234673 0.15830992162
          1.2468004227 -12.411236763 -0.36112266779 1.3342607021 -14.410718918 -0.26096051931
          1.2935957909 -12.292904854 0.42508363724 1.3036388159 -12.480556488 -0.19811195135
          0.60355782509 -7.9882712364 0.09125893563 3.434984684 -16.084075928 0.18815816939
          2.0861847401 -14.020611763 0.62333279848 1.0227696896 -10.043301582 0.28816226125
          0.26506838202 -5.9755358696 -0.082547917962 5.2530269623 -18.102193832 -0.34819352627
          14.269231796 -18.964654922 0.63856494427 0 0 0
          11.949446678 -18.655982971 0.57446610928 0.25783842802 -6.0350174904 -0.043607763946
          1.3262221813 -14.37758255 -3.1755860164e-07 0.74493199587 -10.107585907 -0.18869967759
          2.4571888447 -16.238964081 -0.28255838156 5.2621583939 -18.115568161 -0.18455827236
          0.069381460547 -1.2177715302 0.049073752016 1.3557378054 -12.513465881 -2.7463241281e-07
          7.1770687103 -18.177072525 0.20649188757 0.18559031188 -4.2501044273 0.036458536983
          2.4480481148 -16.290460587 -0.16536436975 0.75248938799 -10.177514076 -0.10051910579
          9.6457967758 -18.373268127 0.50269377232 0.2572426796 -6.0554986 1.6484915477e-07
          5.2628188133 -18.124666214 6.3709552478e-07 0.12965063751 -2.6131234169 0.062244411558
          2.4393267632 -16.282230377 9.3096289788e-08 15.333533287 -21.343669891 -0.63473546505
          0 0 0 0.75883597136 -10.198600769 -7.3875654039e-08
          15.334406853 -21.387283325 -0.31689068675 0 0 0
          1.3342612982 -14.410717964 0.26095986366 12.918498993 -21.040590286 -0.57648909092
          0.61047005653 -7.9280028343 0.17508533597 3.4298570156 -16.063785553 0.4397149682
          -0.0024236910976 -1.2157306671 0.0067710611038 1.3036390543 -12.480556488 0.19811145961
          12.917776108 -21.084709167 -0.2873184979 -0.00091763178352 -1.2510298491 0.0029430012219
          7.1697034836 -18.128019333 0.40571442246 15.334299088 -21.401762009 1.5502753286e-06
          0.25783845782 -6.0350174904 0.043608095497 10.490947723 -20.774593353 -0.51624464989
          -0.00072012213059 -2.6118741035 0.0086694583297 5.2621588707 -18.115568161 0.18455956876
          0 0 0 3.983471632 -18.035497665 -0.35937592387
          0.3412245512 -7.9623732567 -0.097796842456 0.19329467416 -4.1946048737 0.071040071547
          -0.00092348351609 -2.6602330208 0.0045295953751 10.485235214 -20.817167282 -0.25732764602
          12.918031693 -21.099111557 1.3853600649e-06 2.4480485916 -16.290460587 0.16536459327
          0.34058603644 -8.0261592865 -0.053801734 3.975020647 -18.050106049 -0.1870008558
          0.7524895668 -10.177514076 0.10051898658 -0.001194957993 -1.2591317892 1.127744369e-07
          1.4083400965 -15.035738945 -0.2956854403 10.485723495 -20.832403183 1.2139478258e-06
          1.2883809805 -14.402686119 0.54717332125 -0.00091529579367 -2.6747660637 2.2864722382e-07
          0.34498521686 -8.05057621 1.7095958071e-07 1.5229109526 -15.53653717 -0.14966391027
          3.9709067345 -18.057804108 4.9309642236e-07 1.2468010187 -12.411237717 0.36112236977
          15.334407806 -21.387283325 0.31689378619 8.0450811386 -20.514862061 -0.47416001558
          0.86024469137 -12.497672081 -0.16711914539 0 0 0
          0.0027569131926 -4.1917324066 0.0067080217414 1.7359765768 -16.571050644 -0.43112692237
          0.00084259151481 -4.247736454 0.0031030697282 8.0361299515 -20.55616188 -0.22843046486
          12.917776108 -21.084709167 0.28732126951 0.87480545044 -12.606992722 -0.089874900877
          1.6961501837 -16.525550842 -0.2031737417 -0.00091762054944 -1.2510299683 -0.0029427811969
          0.26506844163 -5.9755363464 0.082548253238 5.253027916 -18.102191925 0.34819489717
          1.5802328587 -15.782687187 -2.1069416434e-08 0.74493223429 -10.107586861 0.18869963288
          2.4571897984 -16.238964081 0.28255870938 8.0383110046 -20.571086884 1.0405997273e-06
          10.485235214 -20.817167282 0.25733008981 0.88014066219 -12.658557892 -3.8123161517e-08
          -0.00092346279416 -2.6602330208 -0.0045291408896 0.0010818876326 -4.2654356956 3.232495942e-07
          0.34058606625 -8.0261592865 0.053802076727 3.9750211239 -18.050106049 0.18700185418
          1.7220739126 -16.549791336 -4.434790668e-08 2.5801079273 -17.902114868 -0.34522855282
          0.41303226352 -10.14785862 -0.10729426891 2.5622909069 -17.920907974 -0.17996041477
          0.42904382944 -10.221504211 -0.05881421268 15.333534241 -21.343669891 0.63473856449
          0 0 0 1.5229113102 -15.536538124 0.14966379106
          0.013435937464 -5.9657330513 -0.0014048457379 5.7081708908 -19.98456192 -0.40283188224
          0.011991877109 -6.0309076309 -0.0030017236713 12.918499947 -21.040588379 0.57649189234
          -0.0024235686287 -1.2157307863 -0.0067708282731 5.6908726692 -19.983469009 -0.19676502049
          8.0361299515 -20.556159973 0.22843256593 0.87480568886 -12.606992722 0.089874863625
          0.00084260094445 -4.247736454 -0.0031024324708 1.6961506605 -16.525550842 0.20317363739
          2.5695981979 -17.932189941 3.7107756157e-07 0.4359562397 -10.252713203 1.5785968799e-07
          10.490948677 -20.774593353 0.51624709368 -0.00071998854401 -2.611874342 -0.0086690140888
          3.9834725857 -18.035497665 0.35937696695 0.015209623612 -6.0529704094 3.8754168941e-07
          0.34122461081 -7.9623737335 0.097797185183 5.6961970329 -19.99215889 8.7137902938e-07
          16.386907578 -23.818906784 -0.63087427616 0 0 0
          1.4083409309 -15.035738945 0.2956853807 2.5622916222 -17.920907974 0.17996117473
          0 0 0 13.878274918 -23.51924324 -0.57767724991
          1.0414470434 -15.101332664 -0.15652130544 0.42904388905 -10.221504211 0.058814547956
          -0.06776561588 -1.1926653385 0.064814694226 0.9613956213 -16.823438644 -0.48000717163
          16.387002945 -23.858694077 -0.31523776054 8.0450820923 -20.514862061 0.47416213155
          13.877293587 -23.558582306 -0.28903797269 -0.051226820797 -1.2300745249 0.026409804821
          0.860245049 -12.497672081 0.1671191752 1.0927097797 -15.562511444 -0.044820681214
          0.0027570009697 -4.1917328835 -0.0067074107938 4.4117031097 -20.007543564 -0.41851186752
          0.011991865933 -6.0309076309 0.0030024845619 1.7359775305 -16.571050644 0.43112680316
          0.034189108759 -7.9540610313 -0.022260934114 5.6908736229 -19.983469009 0.19676677883
          1.0124756098 -16.794826508 -0.25070977211 0.036372628063 -8.0264005661 -0.018585577607
          4.3938364983 -20.014345169 -0.2048228085 11.372300148 -23.24036026 -0.52840548754
          16.386219025 -23.871866226 1.8449684376e-06 -0.12196534872 -2.5934467316 0.079922504723
          0 0 0 11.367444038 -23.279605865 -0.26345121861
          -0.11328491569 -2.6402404308 0.040075298399 13.876854897 -23.571939468 1.6618575955e-06
          2.0058267117 -18.270002365 -0.54136931896 1.0975826979 -15.789094925 2.0528940325e-08
          1.0172208548 -16.794656754 -1.401486287e-07 0.50268191099 -12.535287857 -0.058092959225
          -0.050286412239 -1.2386182547 2.0934407985e-07 2.0427625179 -18.2351017 -0.21575908363
          4.3946466446 -20.023422241 7.4398963079e-07 0.55370920897 -12.634724617 -0.027054760605
          0.045737493783 -8.0549240112 4.1469459688e-07 2.5801091194 -17.902114868 0.34522941709
          11.366412163 -23.292423248 1.472699978e-06 0.41303238273 -10.14785862 0.10729462653
          -0.10975127667 -2.6547675133 3.8887353071e-07 8.8493976593 -22.97886467 -0.47082728148
          16.387004852 -23.858694077 0.31524145603 2.0282044411 -18.24829483 1.5903586359e-07
          -0.19993941486 -4.1753559113 0.084010705352 0.013435965404 -5.9657335281 0.0014055651845
          0.55926585197 -12.689918518 1.3889500394e-07 5.7081718445 -19.98456192 0.40283367038
          0 0 0 8.8442201614 -23.017501831 -0.23790691793
          -0.19384007156 -4.2288098335 0.042104139924 13.877293587 -23.558582306 0.28904131055
          1.0927100182 -15.562511444 0.044820789248 1.0124759674 -16.794826508 0.25070947409
          -0.051226820797 -1.2300746441 -0.026409417391 4.3938369751 -20.014345169 0.20482429862
          0.036372605711 -8.0264005661 0.018586402759 11.367444992 -23.279605865 0.26345416903
          8.842549324 -23.029977798 1.2807165604e-06 3.2483484745 -20.070014954 -0.44134673476
          0.048081450164 -10.144873619 -0.035809274763 -0.19037590921 -4.2461290359 5.1870500783e-07
          -0.11328492314 -2.6402404308 -0.040074534714 0.085043869913 -10.235402107 -0.026492694393
          2.0427627563 -18.2351017 0.21575944126 3.2408397198 -20.082881927 -0.20364621282
          0.55370938778 -12.634724617 0.027055075392 6.6327123642 -22.229902267 -0.42121574283
          16.386909485 -23.818904877 0.63087797165 0 0 0
          -0.27666956186 -5.9285154343 0.088356636465 6.6203656197 -22.236787796 -0.21781536937
          13.878275871 -23.51924324 0.57768058777 -0.26922297478 -5.9925837517 0.041092336178