<?xml version="1.0"?>
<VTKFile type="UnstructuredGrid" version="0.1" byte_order="LittleEndian" header_type="UInt32" compressor="vtkZLibDataCompressor">
  <UnstructuredGrid>
    <Piece NumberOfPoints="6405" NumberOfCells="4800">
      <PointData>
        <DataArray type="Float32" Name="DISPLACEMENT" NumberOfComponents="3" ComponentName0="X-DISPLACEMENT" ComponentName1="Y-DISPLACEMENT" ComponentName2="Z-DISPLACEMENT" format="ascii" RangeMin="0" RangeMax="240.73475898">
          0 0 0 0 0 0
          2.0614652634 -1.2011117935 -0.95973408222 0 0 0
          1.3211368322 -0.67383563519 -0.72646981478 0 0 0
          1.8825279474 -1.3427522182 -0.38216614723 1.1496382952 -0.79430955648 -0.29612913728
          0 0 0 3.7351706028 -2.2575628757 -0.99165815115
          0 0 0 3.681825161 -2.4259183407 -0.50955474377
          2.6623690128 -1.8296407461 -0.80460870266 0 0 0
          0 0 0 1.8904615641 -1.3897542953 5.1577078608e-08
          0.9185487628 -0.41840732098 -0.52825731039 1.1447057724 -0.81844228506 2.3594500576e-08
          2.6043002605 -1.9669438601 -0.41047680378 0.78941464424 -0.53421592712 -0.21346344054
          3.6406137943 -2.4728550911 1.2410077943e-07 1.8589856625 -1.4672330618 -0.60205209255
          0 0 0 2.5685973167 -2.0111289024 6.7978973561e-08
          1.7954307795 -1.598880291 -0.3084423244 0 0 0
          5.2604522705 -3.6842591763 -0.9244557023 0 0 0
          0.78323912621 -0.55456727743 -7.5861104065e-09 0 0 0
          0 0 0 1.8825279474 -1.342752099 0.38216626644
          3.9298169613 -3.2737801075 -0.77111309767 5.2766876221 -3.8040957451 -0.469874084
          0.52664315701 -0.25224980712 -0.30329820514 1.1496382952 -0.79430949688 0.29612919688
          3.9402756691 -3.3867857456 -0.3927179575 0.43989509344 -0.37290462852 -0.12304724008
          1.7631244659 -1.6358429193 4.3186658694e-09 3.681825161 -2.4259183407 0.50955498219
          0 0 0 0 0 0
          1.1134705544 -1.2188603878 -0.38872748613 2.8535130024 -2.9280653 -0.61799287796
          5.2609362602 -3.8462619781 2.2350835138e-07 2.6043002605 -1.9669437408 0.41047695279
          2.8312220573 -3.0385668278 -0.31399396062 0.78941470385 -0.53421586752 0.21346342564
          3.9297001362 -3.4235703945 1.3427677459e-07 1.0433511734 -1.3560518026 -0.19743447006
          0.43233412504 -0.3898230195 -4.1173194631e-08 0 0 0
          6.6514501572 -5.3398733139 -0.81075394154 0 0 0
          5.1323709488 -4.9730811119 -0.71346563101 1.7954307795 -1.5988801718 0.3084423244
          6.6904101372 -5.415356636 -0.41002553701 2.0614652634 -1.2011116743 0.95973420143
          0 0 0 0 0 0
          1.016544342 -1.3922954798 -6.3703524233e-08 2.8158791065 -3.071886301 3.5529438946e-08
          0.038453705609 -0.1751178056 -0.060975596309 5.1625051498 -5.047416687 -0.35979878902
          1.3211369514 -0.67383551598 0.72646987438 1.7981432676 -2.6550405025 -0.45456913114
          0 0 0 5.2766876221 -3.8040957451 0.46987453103
          -0.03600570932 -0.31042376161 -0.035581208766 1.7421935797 -2.7679758072 -0.23015211523
          3.9402759075 -3.3867855072 0.39271822572 0.43989512324 -0.37290453911 0.12304716557
          3.8538110256 -4.6581058502 -0.61592876911 0.15938554704 -1.0887795687 -0.16759897768
          6.687564373 -5.4415664673 3.5076104155e-07 3.7351708412 -2.2575626373 0.99165844917
          0 0 0 0 0 0
          3.8477191925 -4.7300071716 -0.31021746993 2.6623692513 -1.8296405077 0.80460888147
          5.1654376984 -5.0727677345 2.2547152412e-07 0.08439411968 -1.2302948236 -0.09491237998
          0.9185488224 -0.41840717196 0.52825731039 -0.057131558657 -0.3318130672 -8.022664133e-08
          1.7217849493 -2.8006367683 -6.869779412e-08 2.8312222958 -3.0385665894 0.31399405003
          1.0433512926 -1.3560516834 0.19743435085 3.8428361416 -4.7530856133 8.9282480076e-08
          1.8589859009 -1.4672328234 0.60205215216 0.061445325613 -1.2687977552 -1.3475715832e-07
          2.5904941559 -4.3979067802 -0.51835405827 6.6904101372 -5.4153561592 0.41002625227
          5.2604527473 -3.6842589378 0.92445617914 0 0 0
          7.8803777695 -7.1310625076 -0.70820778608 0 0 0
          0 0 0 0.48969700933 -2.4744057655 -0.28734147549
          2.5388526917 -4.4638004303 -0.26137304306 7.91928339 -7.1682777405 -0.35698500276
          6.2479043007 -6.808382988 -0.66201049089 5.1625056267 -5.0474162102 0.35979923606
          -0.40674552321 -0.28946596384 0.12253946066 0 0 0
          3.9298171997 -3.2737798691 0.77111333609 0.52664315701 -0.25224965811 0.30329814553
          0.42313855886 -2.5897152424 -0.15073305368 -0.036005642265 -0.3104236722 0.035581063479
          -0.4415667057 -0.42946001887 0.044042959809 1.7421936989 -2.7679755688 0.23015198112
          6.279276371 -6.8472781181 -0.33170029521 3.8477191925 -4.7300071716 0.31021767855
          2.5227451324 -4.4822673798 -5.1670859591e-08 7.9224243164 -7.1826210022 5.0768943538e-07
          -0.60264188051 -0.98298186064 0.10226690769 0.084394231439 -1.2302945852 0.09491211921
          0 0 0 4.8312125206 -6.539372921 -0.61611145735
          1.1134706736 -1.2188601494 0.38872736692 2.8535132408 -2.9280648232 0.61799299717
          0.40905410051 -2.6226375103 -1.7307959865e-07 6.2866063118 -6.8615436554 3.4430445339e-07
          -0.52185738087 -0.47078987956 -1.852552316e-07 -0.65377694368 -1.1543067694 0.017644375563
          4.8331890106 -6.5738711357 -0.30909889936 6.651450634 -5.3398728371 0.81075465679
          0 0 0 1.0506249666 -4.1729512215 -0.42240545154
          5.1323714256 -4.9730806351 0.71346610785 -0.70071738958 -1.2046413422 -6.8937737296e-08
          0.9836871624 -4.2411203384 -0.21370477974 4.834239006 -6.5865049362 1.7009766395e-07
          0.038453765213 -0.17511765659 0.060975477099 2.5388526917 -4.4637999535 0.26137295365
          3.449451685 -6.3192110062 -0.58247309923 7.91928339 -7.1682777405 0.35698601604
          -0.81444382668 -2.2962493896 0.091587848961 1.7981433868 -2.6550400257 0.45456901193
          0 0 0 0.42313873768 -2.589715004 0.15073271096
          3.4178781509 -6.3366341591 -0.29277348518 -0.44156658649 -0.42945998907 -0.044043272734
          -0.86671066284 -2.4993364811 -0.016335560009 6.279276371 -6.8472776413 0.33170098066
          3.8538115025 -4.6581053734 0.61592900753 0.15938568115 -1.088779211 0.16759873927
          8.9613819122 -8.9506721497 -0.63247859478 0 0 0
          0.97408294678 -4.2625102997 -1.9414272856e-07 7.276099205 -8.6648464203 -0.61985564232
          8.9929800034 -8.9638624191 -0.31888481975 0 0 0
          0.07718129456 -0.70945674181 -0.095733217895 7.3039383888 -8.6800727844 -0.31003788114
          3.414659977 -6.3437447548 -1.1196799932e-08 0.02579065226 -0.70062959194 -0.0096504176036
          -0.65377622843 -1.1543061733 -0.017644621432 -0.88222229481 -2.5267248154 -3.158630193e-07
          4.8331890106 -6.5738711357 0.30909925699 5.7543940544 -8.4377193451 -0.61162543297
          0.077662967145 -1.5026005507 -0.21429672837 8.9990587234 -8.9705295563 6.9324954666e-07
          0 0 0 0.017609104514 -1.5102263689 -0.059771705419
          5.7684264183 -8.4481925964 -0.30603018403 7.3120737076 -8.687379837 4.9035901384e-07
          0.028966784477 -0.73774939775 1.4570834139e-07 2.5904943943 -4.3979063034 0.51835399866
          1.8577879667 -6.1099228859 -0.58670204878 7.8803782463 -7.1310620308 0.70820885897
          0 0 0 -0.76686185598 -3.7370352745 -0.34384822845
          0.98368740082 -4.2411198616 0.21370442212 0.48969724774 -2.4744052887 0.28734117746
          6.2479047775 -6.8083820343 0.66201120615 -0.40674552321 -0.28946590424 -0.12253952026
          1.261036396 -4.4687690735 -0.068362608552 1.7841211557 -6.0924568176 -0.28805762529
          3.4178783894 -6.3366336823 0.29277345538 -0.8667100668 -2.4993362427 0.016334623098
          5.7740216255 -8.4543437958 2.786162554e-07 0.01342390012 -1.544814229 5.195619579e-08
          4.3307318687 -8.2805204391 -0.61694431305 0.30432471633 -2.6348004341 -0.35357487202
          -0.60264110565 -0.98298096657 -0.10226722807 8.9929800034 -8.9638624191 0.31888619065
          4.8312125206 -6.5393719673 0.61611187458 0 0 0
          1.7574095726 -6.0782647133 -1.8610637653e-07 0.98870944977 -4.9079208374 9.405858691e-06
          4.3326778412 -8.2767677307 -0.31489637494 7.3039388657 -8.6800727844 0.31003886461
          0.30622705817 -2.531983614 -0.12504088879 0.025790175423 -0.70062953234 0.0096506271511
          1.0506254435 -4.1729507446 0.42240512371 4.3359026909 -8.2867250443 5.9970595601e-08
          5.7684268951 -8.4481916428 0.30603075027 0.017607400194 -1.5102266073 0.059771943837
          0.30371892452 -2.5929656029 -7.2312793975e-08 9.9441270828 -10.729413986 -0.58925056458
          0 0 0 9.9671354294 -10.735643387 -0.29644396901
          3.4494521618 -6.3192105293 0.58247315884 8.2333526611 -10.46212101 -0.5849647522
          -0.81444334984 -2.2962489128 -0.091588661075 2.1357257366 -6.7090044022 -0.84678441286
          0.17148983479 -0.80568349361 -0.13265998662 1.2610293627 -4.4687666893 0.068366028368
          1.7841215134 -6.0924563408 0.28805729747 0 0 0
          8.2570981979 -10.470505714 -0.29219987988 2.2464601994 -6.5144276619 -0.40569743514
          0.12453790009 -0.80707538128 -0.054954726249 2.846477747 -8.058139801 -0.70438951254
          0.8945068717 -3.9494657516 -0.40798088908 8.9613819122 -8.950671196 0.63248002529
          0 0 0 7.2760996819 -8.6648454666 0.6198566556
          9.9747810364 -10.739588737 9.0463203151e-07 0.56949532032 -4.0787057877 -0.12575943768
          2.8416888714 -8.0366659164 -0.34094128013 0.077180452645 -0.70945674181 0.095733031631
          6.6278586388 -10.250378609 -0.58330452442 0.33214005828 -1.6705399752 -0.21395881474
          0 0 0 4.3326778412 -8.276766777 0.31489649415
          0.30622273684 -2.5319845676 0.12504009902 8.2648181915 -10.475149155 6.6104240659e-07
          0.65823000669 -5.302842617 -8.9468976512e-06 6.6542787552 -10.256157875 -0.29268038273
          0.28876999021 -1.6716387272 -0.10889502615 0.11959130317 -0.8103544116 1.2988445519e-07
          5.7543945312 -8.4377183914 0.61162602901 0.077659159899 -1.502599597 0.21429641545
          2.8343062401 -8.0535287857 -1.491229682e-07 0.6722394824 -4.2426056862 -3.2776451917e-06
          1.857788682 -6.1099224091 0.58670181036 6.66137743 -10.262028694 4.0958306613e-07
          0.27570256591 -1.6733708382 -4.707189305e-08 -0.76700049639 -3.7370290756 0.34377607703
          9.9671354294 -10.735643387 0.29644578695 5.1450433731 -10.107466698 -0.600943923
          0 0 0 0.51390314102 -2.7134225368 -0.28749573231
          5.1789674759 -10.113359451 -0.30205965042 8.2570991516 -10.470504761 0.29220122099
          0.12453730404 -0.8070756197 0.054954927415 2.2464601994 -6.5144276619 0.40569680929
          0.45137801766 -2.7605175972 -0.14922583103 4.3307323456 -8.2805204391 0.61694443226
          2.3665044308 -7.8473267555 -0.64562952518 2.8416893482 -8.0366659164 0.3409409821
          0.30431047082 -2.6348114014 0.35357037187 0.56948828697 -4.0786967278 0.12575130165
          1.2944983244 -5.904229641 -0.40418243408 2.7311358452 -8.0833520889 -0.31628990173
          5.1842021942 -10.123157501 1.4989559816e-07 6.654279232 -10.256156921 0.29268121719
          0.2887686789 -1.6716395617 0.10889473557 1.3424719572 -6.049721241 -0.30456715822
          0.43553504348 -2.7662084103 -8.6000306965e-07 10.892651558 -12.461939812 -0.57298463583
          0 0 0 0.16748592257 -0.81007140875 -0.1170116514
          3.1659162045 -8.4534978867 -5.2680968565e-07 3.9970526695 -9.9685974121 -0.6112831831
          9.1510753632 -12.189395905 -0.55689638853 9.9441280365 -10.729413033 0.58925241232
          0 0 0 0 0 0
          1.6020642519 -5.9113855362 -1.8861156832e-06 0.72160327435 -4.1019935608 -0.32183635235
          10.907458305 -12.474723816 -0.28680631518 4.0440225601 -9.9934463501 -0.29175525904
          9.1693401337 -12.20490551 -0.27725464106 8.2333526611 -10.462120056 0.5849661231
          0.13006269932 -0.82805120945 -0.049884468317 2.1357254982 -6.7090034485 0.84678322077
          0.1714887917 -0.80568373203 0.1326598376 0.73931187391 -4.1637611389 -0.16147045791
          5.1789674759 -10.113359451 0.30205997825 0.45137697458 -2.760518074 0.14922450483
          7.4596495628 -11.965613365 -0.53430092335 2.8464784622 -8.0581388474 0.70438915491
          0.89451426268 -3.9494616985 0.40798461437 0 0 0
          0.31382015347 -1.7241734266 -0.1691261977 10.914958954 -12.479795456 1.1377996998e-06
          0.12740805745 -0.83214330673 4.6802846043e-08 4.0454273224 -9.9947690964 -1.4500504619e-07
          7.4891376495 -11.981902122 -0.26764440536 6.6278595924 -10.250377655 0.58330541849
          9.17532444 -12.210353851 8.5309955011e-07 0.33213701844 -1.6705421209 0.21395823359
          0.73001992702 -4.1689834595 -2.3924419565e-06 0.27674588561 -1.7605732679 -0.088005490601
          2.7311351299 -8.0833501816 0.31628888845 1.3424650431 -6.0497174263 0.3045591116
          2.2511281967 -7.8415498734 -0.47530961037 7.4960203171 -11.987955093 5.6145654526e-07
          0.2660652101 -1.7691140175 -1.7282394538e-07 2.1887853146 -7.9331231117 -0.22176802158
          5.9390492439 -11.791550636 -0.51634371281 0 0 0
          0.44903317094 -2.8247482777 -0.20734666288 10.907458305 -12.474723816 0.28680858016
          0.13006240129 -0.82805156708 0.049884490669 4.044023037 -9.9934453964 0.29175496101
          5.981856823 -11.810761452 -0.25773948431 5.1450438499 -10.107465744 0.60094422102
          9.1693401337 -12.204904556 0.27725633979 3.215981245 -9.9403877258 -0.39210873842
          1.1112135649 -5.7689604759 -0.32897743583 0.51390248537 -2.7134234905 0.28749448061
          0.42947179079 -2.875824213 -0.10621447116 0.73931097984 -4.1637592316 0.16146743298
          3.2696003914 -10.023985863 -0.21882773936 1.0965093374 -5.8441176414 -0.15740628541
          2.007818222 -7.8292117119 -2.6762013476e-06 2.3665039539 -7.8473248482 0.64562827349
          7.4891376495 -11.981901169 0.26764550805 1.2944850922 -5.9042139053 0.40417650342
          5.9875326157 -11.816633224 2.6150311783e-07 0.27674549818 -1.760573864 0.088005140424
          0.42172574997 -2.8885507584 -6.7471472676e-07 3.3041470051 -10.022310257 -5.4247504977e-07
          1.0678418875 -5.8861589432 -3.0006679026e-06 0.61244630814 -4.1737136841 -0.22295613587
          4.7535562515 -11.650265694 -0.46758133173 10.892652512 -12.461938858 0.57298690081
          0 0 0 2.1887831688 -7.9331221581 0.22176355124
          0.16748526692 -0.8100720048 0.11701148003 0.59673446417 -4.2374711037 -0.11482830346
          3.9970531464 -9.9685964584 0.61128288507 9.1510753632 -12.189393997 0.55689811707
          4.7923698425 -11.679077148 -0.24061451852 11.850032806 -14.19887352 -0.57274329662
          0 0 0 0.72159957886 -4.1019921303 0.32183274627
          11.85766983 -14.222902298 -0.28462150693 0.11196424067 -0.80394566059 -0.075789615512
          10.063942909 -13.913342476 -0.53580200672 5.981856823 -11.810760498 0.25774002075
          0 0 0 0.42947143316 -2.8758244514 0.10621311516
          10.07407093 -13.939590454 -0.26720616221 0.088462524116 -0.83344227076 -0.032150197774
          3.2696008682 -10.023985863 0.21882674098 1.0965076685 -5.8441143036 0.15740121901
          7.4596500397 -11.965612411 0.53430205584 0.59008419514 -4.2565050125 -1.3192191091e-06
          4.8013663292 -11.683514595 -5.8420773996e-08 0.31381940842 -1.7241742611 0.16912564635
          2.9946060181 -10.363903046 -0.50876122713 0.21192297339 -1.7507654428 -0.10217089206
          8.2723407745 -13.64206028 -0.49318781495 1.4910429716 -7.6788125038 -0.30241000652
          11.862814903 -14.230065346 1.3911045471e-06 0 0 0
          2.9762823582 -10.324207306 -0.24813164771 10.0776968 -13.94720459 1.0636402976e-06
          0.086590372026 -0.84014117718 1.1333320948e-08 8.2919225693 -13.671504021 -0.24270296097
          0.19370475411 -1.7960829735 -0.053008783609 1.529348731 -7.7662825584 -0.16248446703
          2.2511258125 -7.8415484428 0.47530701756 3.044870615 -10.369364738 -8.0760918308e-07
          0.79858833551 -5.782022953 -0.21597391367 0.59673410654 -4.2374706268 0.11482554674
          3.557284832 -11.487927437 -0.43420162797 8.2968254089 -13.677253723 7.3248861554e-07
          5.9390497208 -11.791549683 0.51634424925 4.7923703194 -11.679077148 0.24061441422
          1.5552688837 -7.7785935402 -2.2638093924e-06 0.18720814586 -1.808891058 -1.3849262359e-07
          0.44903197885 -2.8247489929 0.20734529197 11.85766983 -14.222901344 0.28462427855
          6.6148328781 -13.492082596 -0.42812085152 0.80856782198 -5.8529214859 -0.11020810902
          0.30894804001 -2.8777046204 -0.12010575831 3.5705218315 -11.511506081 -0.21963433921
          3.2159817219 -9.9403867722 0.39210802317 1.1112126112 -5.7689576149 0.32897371054
          0 0 0 0.29583853483 -2.9356565475 -0.062426351011
          10.07407093 -13.9395895 0.26720830798 0.088462427258 -0.83344256878 0.032150190324
          6.6449770927 -13.513299942 -0.22035697103 0.81266510487 -5.8724522591 -1.8521171796e-06
          3.5855250359 -11.518119812 -3.6226381894e-07 2.9762821198 -10.324206352 0.24812990427
          6.6499695778 -13.521821022 4.0280673375e-07 0.29076242447 -2.9524130821 -4.4454165504e-07
          8.2919225693 -13.671504021 0.24270443618 0.1937046051 -1.7960833311 0.053008463234
          1.5293470621 -7.7662811279 0.16248007119 0.61244571209 -4.1737136841 0.22295404971
          4.7535567284 -11.65026474 0.46758127213 5.3425445557 -13.445619583 -0.44361802936
          11.85003376 -14.198872566 0.57274609804 0 0 0
          0.40742474794 -4.2299032211 -0.12900568545 0.11196401715 -0.80394607782 0.075789481401
          10.063943863 -13.913341522 0.53580415249 0.80856740475 -5.8529205322 0.11020465195
          3.5705225468 -11.511506081 0.21963365376 5.3661122322 -13.458896637 -0.22198234499
          2.0063903332 -9.7591629028 -0.19966562092 0.40332111716 -4.2930998802 -0.066036984324
          0.29583841562 -2.935656786 0.062425468117 6.6449770927 -13.513298988 0.22035779059
          2.0354084969 -9.8272895813 -0.14281819761 3.2669670582 -11.669559479 -0.58910542727
          1.0444128513 -7.5991711617 -0.18619276583 12.824625969 -16.004926682 -0.57435184717
          0 0 0 10.973498344 -15.715828896 -0.53005433083
          2.9946062565 -10.363901138 0.50875943899 0.21192254126 -1.7507661581 0.10217050463
          8.2723417282 -13.642059326 0.49318930507 1.0625299215 -7.6653409004 -0.092831514776
          3.3633928299 -11.65847683 -0.23110708594 1.491040349 -7.6788096428 0.30240616202
          12.826966286 -16.034311295 -0.28515923023 0 0 0
          0.40108606219 -4.3122563362 -8.1434524191e-07 5.3782429695 -13.475129128 8.5923318238e-08
          0.040405586362 -0.79804986715 -0.025642305613 10.975530624 -15.746639252 -0.26409435272
          0.033606648445 -0.83075600863 -0.010652914643 2.0179109573 -9.8122167587 -1.7740690055e-06
          9.1354722977 -15.428142548 -0.47591865063 1.0626425743 -7.686545372 -1.8574529577e-06
          3.3951480389 -11.695122719 -9.9893384231e-07 12.828721046 -16.0429039 1.6639930891e-06
          0 0 0 0.082615278661 -1.7509570122 -0.031533461064
          9.1352491379 -15.462136269 -0.23612223566 10.977310181 -15.754961014 1.2908579947e-06
          0.79858720303 -5.7820219994 0.21597109735 3.5572860241 -11.487926483 0.43420106173
          0.033233165741 -0.83859974146 2.9515360822e-08 0.077759958804 -1.8000262976 -0.016367290169
          6.6148338318 -13.492081642 0.42812168598 0.30894765258 -2.8777050972 0.12010489404
          0.51921004057 -5.812646389 -0.12712071836 4.3869557381 -13.419103622 -0.48103916645
          0.40332096815 -4.2930998802 0.066035464406 5.366112709 -13.458895683 0.2219825238
          0.52142828703 -5.8728914261 -0.064297035336 4.4169220924 -13.446951866 -0.21938472986
          2.0354077816 -9.8272886276 0.14281487465 9.1380929947 -15.467716217 9.130116041e-07
          0.075749494135 -1.8148189783 -1.5130414255e-08 7.1181521416 -15.145643234 -0.38956722617
          1.0625293255 -7.6653399467 0.092827990651 3.3633925915 -11.658475876 0.23110547662
          12.826967239 -16.034311295 0.28516253829 0 0 0
          0.13124591112 -2.8868329525 -0.03567898646 7.1279902458 -15.175739288 -0.20776572824
          10.975530624 -15.746638298 0.26409694552 0.12704662979 -2.9471802711 -0.018470007926
          0.52053582668 -5.892999649 -1.0495346032e-06 4.423374176 -13.457229614 -2.2719747506e-07
          0.033606611192 -0.83075618744 0.010652951896 9.1352491379 -15.462136269 0.2361240685
          7.136657238 -15.185500145 5.5532552778e-07 0.12534061074 -2.9657714367 -1.1775068742e-07
          5.3425455093 -13.445617676 0.44361820817 2.5600259304 -11.499228477 -0.22818644345
          0.07775990665 -1.800026536 0.016367245466 0.40742427111 -4.229903698 0.12900426984
          1.3300845623 -9.4950857162 -0.1392031759 2.5657081604 -11.594135284 -0.1296261549
          2.0063898563 -9.7591619492 0.19966295362 1.3556190729 -9.5562772751 -0.069245271385
          0.52142810822 -5.8728909492 0.06429503113 4.4169225693 -13.446950912 0.21938425303
          3.2669670582 -11.669557571 0.58910346031 1.0444123745 -7.599170208 0.18618988991
          0.18502052128 -4.2452225685 -0.041561987251 5.902115345 -15.007461548 -0.43325382471
          12.824625969 -16.004924774 0.57435518503 0 0 0
          10.973499298 -15.715826988 0.53005695343 0.17931061983 -4.3087625504 -0.021544087678
          2.5765719414 -11.599364281 -1.2614488014e-06 0.64270013571 -7.5768837929 -0.11245949566
          3.7987806797 -13.46427536 -0.31837579608 5.9250330925 -15.032534599 -0.21161980927
          0.04040550068 -0.79805022478 0.025642288849 1.3658475876 -9.5805854797 -1.5594056322e-06
          7.1279907227 -15.175738335 0.20776684582 0.12704657018 -2.9471805096 0.018469769508
          3.8459188938 -13.545028687 -0.17348916829 0.65467613935 -7.6283020973 -0.056527543813
          9.1354722977 -15.42814064 0.47592052817 0.17747674882 -4.3292355537 -2.2939578059e-07
          5.9327588081 -15.046113014 2.0946114887e-07 0.082615144551 -1.7509576082 0.031533371657
          3.8572161198 -13.559383392 -7.5381450415e-07 13.79222393 -17.902383804 -0.57172316313
          0 0 0 0.65767729282 -7.6472744942 -1.0959468e-06
          13.79244709 -17.929079056 -0.28489664197 0 0 0
          2.5657081604 -11.594135284 0.1296236515 11.879525185 -17.623645782 -0.53534513712
          0.51920974255 -5.812646389 0.12711898983 4.3869566917 -13.419102669 0.48103860021
          -0.035184748471 -0.79375827312 0.025303481147 1.3556187153 -9.5562763214 0.069242291152
          11.877624512 -17.649936676 -0.26639410853 -0.024911424145 -0.82507652044 0.010810994543
          7.1181526184 -15.145642281 0.38956838846 13.791915894 -17.937486649 1.9566637093e-06
          0.17931056023 -4.3087630272 0.021543629467 9.961482048 -17.373632431 -0.49831816554
          -0.057795021683 -1.7292027473 0.040790077299 5.9250335693 -15.032533646 0.2116202265
          0 0 0 4.9760546684 -14.868243217 -0.38520371914
          0.23510402441 -5.8304619789 -0.050463892519 0.13124571741 -2.8868336678 0.035678740591
          -0.047370132059 -1.7788416147 0.021210948005 9.9530000687 -17.396511078 -0.24834269285
          11.877797127 -17.657928467 1.533183422e-06 3.8459188938 -13.545027733 0.17348779738
          0.22963547707 -5.8882975578 -0.026226069778 5.0040092468 -14.912352562 -0.19249489903
          0.65467596054 -7.6283020973 0.056525468826 -0.023638986051 -0.83284950256 8.0681644476e-08
          1.574988842 -11.372878075 -0.091772690415 9.9536504745 -17.405719757 1.1060471934e-06
          2.5600261688 -11.499227524 0.22818435729 -0.044415250421 -1.793649435 1.5147693944e-07
          0.22854910791 -5.9082260132 -2.9348646535e-07 1.6067057848 -11.439446449 -0.039406597614
          5.0071353912 -14.921750069 -1.5632092243e-07 1.3300842047 -9.4950857162 0.1392005831
          13.792448044 -17.929079056 0.28490057588 7.9954247475 -17.12804985 -0.4899135828
          0.76782155037 -9.4380340576 -0.086365826428 0 0 0
          -0.059535671026 -2.8486053944 0.052258018404 2.9779286385 -13.571478844 -0.1957770735
          -0.055012024939 -2.9133179188 0.02687228471 7.9828557968 -17.148971558 -0.23221580684
          11.877625465 -17.649934769 0.26639720798 0.78760367632 -9.4776477814 -0.041907608509
          2.9866554737 -13.664010048 -0.096560783684 -0.024911429733 -0.82507663965 -0.010810846463
          0.18502035737 -4.2452230453 0.041561577469 5.9021158218 -15.007460594 0.43325427175
          1.6030343771 -11.458321571 -1.3517287698e-06 0.64269989729 -7.5768842697 0.11245770752
          3.7987809181 -13.464273453 0.3183748126 7.9880776405 -17.157262802 6.7413935767e-07
          9.9530000687 -17.396511078 0.24834491313 0.79103666544 -9.4955215454 -9.8813018212e-07
          -0.047370135784 -1.7788417339 -0.021210659295 -0.053512655199 -2.9328672886 2.1957706053e-07
          0.22963537276 -5.8882975578 0.026225503534 5.0040092468 -14.912351608 0.19249461591
          2.9806222916 -13.685406685 -9.1847272188e-07 4.0276331902 -14.822445869 -0.28932994604
          0.27487206459 -7.5945062637 -0.059237558395 4.0276284218 -14.876197815 -0.14643292129
          0.27293813229 -7.6395039558 -0.031326968223 13.792224884 -17.902381897 0.57172709703
          0 0 0 1.606705904 -11.439445496 0.039404083043
          -0.052316930145 -4.2103848457 0.049094822258 6.7996282578 -16.702766418 -0.41403830051
          -0.058906823397 -4.2810878754 0.024531323463 11.879526138 -17.623643875 0.53534823656
          -0.035184700042 -0.79375857115 -0.025303354487 6.821999073 -16.737728119 -0.19447471201
          7.9828562737 -17.148971558 0.23221716285 0.78760349751 -9.4776477814 0.041905723512
          -0.055012043566 -2.9133181572 -0.026871865615 2.9866554737 -13.664009094 0.096558988094
          4.0182552338 -14.879304886 -4.5038117946e-07 0.27336609364 -7.6579880714 -2.7410118264e-07
          9.9614830017 -17.373632431 0.49832040071 -0.057794965804 -1.7292032242 -0.040789827704
          4.9760551453 -14.868242264 0.38520348072 -0.059819757938 -4.303384304 3.0209278634e-07
          0.2351038903 -5.8304629326 0.050463389605 6.8171496391 -16.745584488 2.5258125902e-07
          14.741671562 -19.867343903 -0.56580168009 0 0 0
          1.5749890804 -11.372878075 0.091770537198 4.0276293755 -14.876197815 0.14643201232
          0 0 0 12.7707901 -19.595783234 -0.53771948814
          0.8845897913 -11.309786797 -0.044641572982 0.27293804288 -7.6395039558 0.031326442957
          -0.10238028318 -0.79596346617 0.067876957357 1.7668448687 -13.258938789 0.025409771129
          14.742051125 -19.888538361 -0.28265851736 7.9954257011 -17.128047943 0.48991495371
          12.769791603 -19.615940094 -0.26881715655 -0.075167290866 -0.81922245026 0.028689892963
          0.76782149076 -9.4380340576 0.086364209652 0.908613801 -11.340298653 -0.019450787455
          -0.059535630047 -2.8486061096 -0.052257645875 5.4862728119 -16.526807785 -0.34102702141
          -0.058906894177 -4.2810878754 -0.024530740455 2.9779288769 -13.571476936 0.19577538967
          -0.058775383979 -5.8265771866 0.027319205925 6.8220000267 -16.737728119 0.19447527826
          1.7844283581 -13.319987297 -0.0093865580857 -0.075126089156 -5.890818119 0.012464918196
          5.4984340668 -16.5644207 -0.17327021062 10.804254532 -19.339641571 -0.51420658827
          14.740878105 -19.895431519 2.2666069981e-06 -0.18624971807 -1.6889719963 0.11326197535
          0 0 0 10.798716545 -19.357769012 -0.25672492385
          -0.15510989726 -1.7338881493 0.058219619095 12.769173622 -19.622743607 1.78920709e-06
          3.0783088207 -14.922045708 -0.16668429971 0.91416358948 -11.357727051 -8.8153353772e-07
          1.7850813866 -13.342601776 -1.4010629457e-06 0.30324390531 -9.4529972076 -0.059454079717
          -0.072096548975 -0.82618802786 1.3552777034e-07 3.0750722885 -14.995940208 -0.096035063267
          5.5001578331 -16.576026917 -7.0498273885e-10 0.30986139178 -9.4828929901 -0.031588491052
          -0.077788032591 -5.9127745628 4.1072974e-07 4.0276346207 -14.822444916 0.28932905197
          10.797501564 -19.364181519 1.3066660358e-06 0.27487197518 -7.5945067406 0.059237100184
          -0.14696997404 -1.746658206 2.9824190051e-07 8.8259353638 -19.091661453 -0.49314510822
          14.742051125 -19.888536453 0.28266304731 3.0755140781 -15.00770092 -4.396146096e-07
          -0.24975429475 -2.7617435455 0.15199586749 -0.052316948771 -4.2103857994 -0.049094315618
          0.31326079369 -9.4994869232 -1.889241048e-07 6.7996292114 -16.702764511 0.41403898597
          0 0 0 8.8202171326 -19.106311798 -0.24678429961
          -0.23049207032 -2.8310821056 0.078812137246 12.769791603 -19.615940094 0.26882073283
          0.90861386061 -11.340297699 0.019449103624 1.7844290733 -13.319986343 0.0093839177862
          -0.075167268515 -0.81922250986 -0.028689635918 5.4984345436 -16.564418793 0.17327019572
          -0.075126230717 -5.890818119 -0.012464131229 10.798716545 -19.357769012 0.25672754645
          8.8176774979 -19.112821579 8.2331911244e-07 4.4211568832 -16.405145645 -0.28473925591
          -0.098336681724 -7.6311454773 -0.0099722342566 -0.22433745861 -2.8498904705 4.9433668892e-07
          -0.15510986745 -1.7338882685 -0.058219034225 -0.11495620012 -7.6835327148 -0.0063737034798
          3.0750718117 -14.995939255 0.096033871174 4.414229393 -16.463411331 -0.14586673677
          0.30986124277 -9.4828929901 0.031588125974 7.2682390213 -18.443645477 -0.27330154181
          14.741672516 -19.867341995 0.56580621004 0 0 0
          -0.29795202613 -4.1190953255 0.15997834504 7.2808170319 -18.42317009 -0.16859093308