<?xml version="1.0"?>
<VTKFile type="UnstructuredGrid" version="0.1" byte_order="LittleEndian" header_type="UInt32" compressor="vtkZLibDataCompressor">
  <UnstructuredGrid>
    <Piece NumberOfPoints="6405" NumberOfCells="4800">
      <PointData>
        <DataArray type="Float32" Name="DISPLACEMENT" NumberOfComponents="3" ComponentName0="X-DISPLACEMENT" ComponentName1="Y-DISPLACEMENT" ComponentName2="Z-DISPLACEMENT" format="ascii" RangeMin="0" RangeMax="236.8211376">
          0 0 0 0 0 0
          1.9516404867 -1.1721382141 -0.90312123299 0 0 0
          1.2703471184 -0.67507445812 -0.70079046488 0 0 0
          1.7809767723 -1.294354558 -0.35903218389 1.1051359177 -0.7770588398 -0.28560161591
          0 0 0 3.5106089115 -2.1522288322 -0.92621403933
          0 0 0 3.4591040611 -2.2937610149 -0.47757586837
          2.558110714 -1.7519654036 -0.7759706378 0 0 0
          0 0 0 1.7865294218 -1.3358864784 1.1822524293e-08
          0.92750418186 -0.42797201872 -0.53391134739 1.1002123356 -0.79730087519 2.0635452458e-08
          2.5012588501 -1.864659667 -0.39612978697 0.79641872644 -0.52523380518 -0.21593758464
          3.418702364 -2.3332223892 1.4542492011e-07 1.8739484549 -1.4030560255 -0.61048895121
          0 0 0 2.4663145542 -1.9015651941 1.4745269539e-07
          1.8095178604 -1.5107890368 -0.31296110153 0 0 0
          4.9216594696 -3.418525219 -0.86420124769 0 0 0
          0.79018932581 -0.54168659449 8.8753484562e-09 0 0 0
          0 0 0 1.7809770107 -1.294354558 0.35903224349
          3.7697548866 -3.0381069183 -0.74560046196 4.9349255562 -3.5142362118 -0.44090229273
          0.59356611967 -0.25097191334 -0.33936619759 1.1051360369 -0.7770588398 0.28560167551
          3.7786557674 -3.1279139519 -0.37974247336 0.49636051059 -0.35361227393 -0.13806267083
          1.7774237394 -1.5413473845 1.1843615511e-07 3.4591042995 -2.2937610149 0.47757619619
          0 0 0 0 0 0
          1.2485848665 -1.1492371559 -0.43517997861 2.8632929325 -2.7207553387 -0.62721550465
          4.9202361107 -3.5493578911 3.8776440192e-07 2.5012590885 -1.864659667 0.39613011479
          2.8422501087 -2.8060479164 -0.31990066171 0.79641884565 -0.52523374557 0.21593762934
          3.7687273026 -3.15797472 3.7649377305e-07 1.1739877462 -1.2605261803 -0.22229090333
          0.48861327767 -0.36647108197 -1.6452197826e-08 0 0 0
          6.2150173187 -4.8357253075 -0.76837027073 0 0 0
          4.9170312881 -4.4946565628 -0.69300383329 1.809518218 -1.5107889175 0.31296136975
          6.2488760948 -4.8965291977 -0.38970732689 1.9516408443 -1.1721383333 0.9031214118
          0 0 0 0 0 0
          1.1474269629 -1.2890633345 6.3536255368e-08 2.826862812 -2.8316717148 3.2581181131e-07
          0.16031318903 -0.14079156518 -0.12520459294 4.9448900223 -4.5545573235 -0.34977328777
          1.2703473568 -0.67507439852 0.70079058409 1.992530942 -2.4585175514 -0.50608098507
          0 0 0 4.9349265099 -3.5142362118 0.44090309739
          0.073464930058 -0.25790175796 -0.062612332404 1.9440919161 -2.5475716591 -0.25607591867
          3.7786562443 -3.1279137135 0.37974327803 0.4963606298 -0.35361215472 0.13806265593
          3.8260452747 -4.2187962532 -0.62071502209 0.40296325088 -0.99202662706 -0.25078877807
          6.2481336594 -4.9186730385 7.4620606938e-07 3.5106096268 -2.1522290707 0.92621445656
          0 0 0 0 0 0
          3.8310112953 -4.2737226486 -0.3112808764 2.5581114292 -1.7519654036 0.77597105503
          4.9479122162 -4.5760617256 7.1775451715e-07 0.32219621539 -1.1061762571 -0.13803809881
          0.92750447989 -0.42797189951 0.5339115262 0.054428592324 -0.27346983552 -6.9986910489e-08
          1.9284414053 -2.5775661469 2.3933355919e-07 2.8422505856 -2.8060479164 0.31990134716
          1.1739881039 -1.2605259418 0.22229105234 3.8313584328 -4.2919311523 6.4322938442e-07
          1.8739491701 -1.4030557871 0.61048930883 0.30015853047 -1.1369409561 -1.1732158356e-08
          2.8235914707 -4.0236229897 -0.55233711004 6.2488765717 -4.8965291977 0.38970884681
          4.9216609001 -3.418525219 0.86420214176 0 0 0
          7.3870515823 -6.3344035149 -0.69093215466 0 0 0
          0 0 0 0.85751187801 -2.2638010979 -0.38489425182
          2.7823858261 -4.061507225 -0.28235056996 7.420194149 -6.3715801239 -0.34840905666
          5.988278389 -6.02257061 -0.64536070824 4.944890976 -4.5545573235 0.34977474809
          -0.24488201737 -0.20472434163 0.050438906997 0 0 0
          3.7697558403 -3.0381069183 0.74560135603 0.59356635809 -0.25097170472 0.33936628699
          0.80322599411 -2.3426241875 -0.2048714608 0.073465079069 -0.25790160894 0.062612198293
          -0.29753920436 -0.33149364591 0.0055983727798 1.9440925121 -2.5475714207 0.25607642531
          6.0185861588 -6.0614757538 -0.32344642282 3.8310120106 -4.2737226486 0.3112822175
          2.7578077316 -4.0667357445 5.374733405e-07 7.4254746437 -6.386033535 1.2270616025e-06
          -0.39016103745 -0.88738596439 -0.022308951244 0.32219642401 -1.1061760187 0.13803805411
          0 0 0 4.7567625046 -5.7718467712 -0.60179895163
          1.2485855818 -1.1492369175 0.43518021703 2.8632941246 -2.7207551003 0.62721627951
          0.80245608091 -2.3650553226 1.5549733234e-07 6.0268230438 -6.0760993958 1.1777118516e-06
          -0.33712056279 -0.36785835028 8.8640427975e-07 -0.43098860979 -1.0234782696 -0.057823423296
          4.7725372314 -5.8075122833 -0.30206865072 6.2150192261 -4.8357253075 0.76837188005
          0 0 0 1.5651516914 -3.7701690197 -0.52600359917
          4.9170327187 -4.4946565628 0.69300544262 -0.41364994645 -1.0486848354 1.3735913171e-06
          1.5617003441 -3.8354451656 -0.24246497452 4.7746834755 -5.8218245506 1.0869259768e-06
          0.16031342745 -0.14079120755 0.12520450354 2.7823865414 -4.061507225 0.28235170245
          3.5978467464 -5.6112194061 -0.57292324305 7.4201951027 -6.3715801239 0.34841153026
          -0.63127326965 -2.1169273853 -0.087102770805 1.9925320148 -2.4585170746 0.50608158112
          0 0 0 0.80322623253 -2.3426239491 0.20487175882
          3.6128363609 -5.6266059875 -0.27959677577 -0.29754158854 -0.33149343729 -0.005599334836
          -0.14714109898 -2.1306462288 -0.24853770435 6.0185871124 -6.0614757538 0.323448807
          3.8260467052 -4.2187962532 0.6207164526 0.40296378732 -0.99202615023 0.25078874826
          8.4654722214 -7.8595032692 -0.63988363743 0 0 0
          1.5756686926 -3.8844516277 2.9340304764e-07 6.9977126122 -7.5647745132 -0.60545265675
          8.4919929504 -7.8873791695 -0.32164466381 0 0 0
          0.14262320101 -0.57966285944 -0.15375910699 7.0235447884 -7.595097065 -0.30262607336
          3.633687973 -5.6286072731 9.5706866432e-07 0.08776859194 -0.58082550764 -0.041917897761
          -0.4310067296 -1.023481369 0.057818375528 0.27743855119 -2.1007664204 6.7322813265e-05
          4.7725381851 -5.8075122833 0.30207085609 5.6472373009 -7.3177442551 -0.5704715848
          0.22363296151 -1.2924734354 -0.28523468971 8.4997682571 -7.8982014656 1.8254147562e-06
          0 0 0 0.20643854141 -1.2593920231 -0.12174107879
          5.67329216 -7.3474283218 -0.28685930371 7.0313019753 -7.6066637039 1.7504592051e-06
          0.096238747239 -0.61290919781 -3.5149248561e-06 2.8235929012 -4.0236225128 0.55233836174
          2.6832313538 -5.5204219818 -0.57972097397 7.3870539665 -6.3344035149 0.69093471766
          0 0 0 0.44742077589 -3.3874983788 -0.68113225698
          1.5617010593 -3.8354449272 0.24246573448 0.8575129509 -2.263800621 0.38489466906
          5.9882802963 -6.02257061 0.64536321163 -0.24488900602 -0.20472180843 -0.050442524254
          1.7927968502 -4.0678591728 -0.15540476143 2.5760729313 -5.4659833908 -0.26188728213
          3.6128373146 -5.6266059875 0.27959874272 -0.14736109972 -2.1306591034 0.24852511287
          5.6821727753 -7.3590726852 1.6474318727e-06 0.23655803502 -1.2518984079 -3.3773463315e-07
          4.4223294258 -7.1032299995 -0.5430944562 0.55451005697 -2.2078127861 -0.43204942346
          -0.39017680287 -0.88737970591 0.022285221145 8.4919948578 -7.8873786926 0.3216483593
          4.7567644119 -5.7718467712 0.60180127621 0 0 0
          2.3950679302 -5.3607435226 8.4904490905e-07 1.6754128933 -4.26512146 7.548198937e-07
          4.4410567284 -7.1456828117 -0.2784935534 7.0235462189 -7.5950965881 0.30262961984
          0.50822299719 -2.1733045578 -0.16502016783 0.087777584791 -0.5808250308 0.041911691427
          1.5651533604 -3.7701687813 0.52600473166 4.4399476051 -7.1726455688 1.5328353129e-06
          5.6732935905 -7.347427845 0.28686264157 0.20646350086 -1.2593963146 0.12173551321
          0.4912520349 -2.2268848419 2.3811262508e-06 9.4906730652 -9.3995170593 -0.61318683624
          0 0 0 9.5095729828 -9.429151535 -0.3069010973
          3.5978486538 -5.6112194061 0.57292532921 7.9580965042 -9.1140670776 -0.57413941622
          -0.63124322891 -2.1169509888 0.087111413479 2.2764761448 -5.6678195 -0.42780590057
          0.20593442023 -0.65950256586 -0.16092559695 1.7928153276 -4.0678691864 0.15540198982
          2.5760743618 -5.4659833908 0.26188910007 0 0 0
          7.9787096977 -9.1458110809 -0.28675553203 2.1890227795 -5.5161175728 -0.3498827219
          0.15754643083 -0.66586822271 -0.069997318089 3.3770534992 -6.8771510124 -0.50283646584
          0.93923223019 -3.4747216702 -0.32694551349 8.4654741287 -7.8595027924 0.63988739252
          0 0 0 6.9977149963 -7.5647740364 0.60545623302
          9.5171718597 -9.4397573471 2.5277036002e-06 0.79917287827 -3.6745314598 -0.14214579761
          3.4288861752 -6.9702110291 -0.28424990177 0.14264112711 -0.57966285944 0.15375989676
          6.5119538307 -8.8685474396 -0.53337067366 0.38988703489 -1.397170186 -0.24313160777
          0 0 0 4.4410581589 -7.1456823349 0.27849662304
          0.50834274292 -2.173271656 0.16504964232 7.9858956337 -9.1569471359 2.4217215469e-06
          1.6920136213 -5.0342340469 1.5336502202e-06 6.5363183022 -8.9024572372 -0.26710882783
          0.342381984 -1.4167500734 -0.12913681567 0.15731695294 -0.66467136145 -1.993377964e-06
          5.6472392082 -7.3177437782 0.57047498226 0.22370558977 -1.2924940586 0.28524285555
          3.4469916821 -7.0325059891 1.4023866015e-06 0.90162920952 -3.7881743908 4.4907919801e-05
          2.6832339764 -5.5204219818 0.57972306013 6.5424194336 -8.9156570435 2.2983967938e-06
          0.32650703192 -1.4178785086 3.743702564e-06 0.45092579722 -3.3881514072 0.68202108145
          9.5095748901 -9.429151535 0.30690616369 5.2020664215 -8.6686468124 -0.49316501617
          0 0 0 0.54362201691 -2.3483102322 -0.28680706024
          5.2286353111 -8.7047719955 -0.24789352715 7.9787111282 -9.1458110809 0.2867603898
          0.15755797923 -0.66586524248 0.069994725287 2.1890265942 -5.5161185265 0.34988519549
          0.51184648275 -2.4106347561 -0.15132699907 4.42233181 -7.1032295227 0.54309767485
          2.2574932575 -6.6712536812 -0.35646653175 3.4288878441 -6.9702105522 0.28425273299
          0.55478972197 -2.2075800896 0.43213576078 0.79933542013 -3.6746490002 0.14232584834
          1.3420865536 -5.2059936523 -0.34637182951 2.3980503082 -6.8355960846 -0.23967944086
          5.2327942848 -8.7170085907 2.159083806e-06 6.5363197327 -8.9024572372 0.26711344719
          0.34241232276 -1.4167317152 0.12914885581 1.4594273567 -5.3447809219 -0.18945947289
          0.50280106068 -2.4171190262 2.0922287149e-05 10.49738121 -10.97739315 -0.60162454844
          0 0 0 0.17578694224 -0.66741651297 -0.12762312591
          2.6433045864 -7.0320267677 1.1220147371e-06 4.0380644798 -8.5271883011 -0.43222600222
          8.8838768005 -10.691868782 -0.55180042982 9.4906759262 -9.3995170593 0.61319202185
          0 0 0 0 0 0
          1.5644580126 -5.3268146515 5.5230797443e-05 0.74680995941 -3.6372294426 -0.28830596805
          10.510041237 -11.013942719 -0.30010250211 4.079492569 -8.5613479614 -0.21361508965
          8.8985328674 -10.730155945 -0.27453824878 7.9580988884 -9.114066124 0.57414442301
          0.13583560288 -0.69309639931 -0.055065475404 2.276478529 -5.6678195 0.42780786753
          0.2059571743 -0.65950149298 0.16093142331 0.76602548361 -3.7008566856 -0.13387233019
          5.2286367416 -8.7047710419 0.24789786339 0.51186615229 -2.4106214046 0.15136401355
          7.327144146 -10.459247589 -0.49670279026 3.3770561218 -6.8771505356 0.50283932686
          0.939011693 -3.4749007225 0.32695263624 0 0 0
          0.31406936049 -1.4715709686 -0.17596262693 10.516326904 -11.026053429 3.3213975712e-06
          0.13283571601 -0.69804608822 9.8496093415e-07 4.1011104584 -8.5656414032 1.9826932203e-06
          7.3477592468 -10.496923447 -0.24717757106 6.5119562149 -8.8685464859 0.53337538242
          8.9034404755 -10.742437363 3.1790361845e-06 0.3899526298 -1.3971300125 0.2431487143
          0.75245255232 -3.7288098335 5.3701885918e-05 0.2827450633 -1.5159133673 -0.091253221035
          2.3980522156 -6.8355956078 0.23968176544 1.4595680237 -5.3448805809 0.18959921598
          1.997551322 -6.7979860306 -0.36511018872 7.352971077 -10.508411407 3.021692919e-06
          0.27314901352 -1.5264686346 7.9432693383e-06 1.9861241579 -6.8383984566 -0.15284496546
          5.9026451111 -10.296256065 -0.44597962499 0 0 0
          0.43699815869 -2.4782295227 -0.20223601162 10.510042191 -11.013941765 0.30010917783
          0.13584277034 -0.69308996201 0.055068973452 4.0794939995 -8.5613470078 0.21361905336
          5.928674221 -10.328575134 -0.22061815858 5.2020688057 -8.6686458588 0.49316942692
          8.8985347748 -10.730155945 0.27454465628 2.8423624039 -8.4271965027 -0.40465974808
          1.0600550175 -5.1372470856 -0.26045280695 0.5436322093 -2.3482966423 0.28685212135
          0.42290189862 -2.5328598022 -0.10232356936 0.76604235172 -3.7009005547 0.13395144045
          2.8825304508 -8.4502124786 -0.16003194451 1.0591812134 -5.2055401802 -0.12582875788
          1.9207415581 -6.8369898796 3.6742960219e-05 2.257496357 -6.6712532043 0.35646885633
          7.3477606773 -10.496922493 0.24718363583 1.3424401283 -5.2063913345 0.34647828341
          5.9338464737 -10.33894062 2.8570332233e-06 0.282754004 -1.5159037113 0.091269686818
          0.41464474797 -2.5488495827 2.0843439415e-05 2.9238939285 -8.438990593 1.8123377004e-06
          1.0578346252 -5.2445540428 6.0041696997e-05 0.57418513298 -3.7240536213 -0.20357118547
          4.6404495239 -10.190894127 -0.41027230024 10.497384071 -10.97739315 0.60163128376
          0 0 0 1.9861757755 -6.8384170532 0.15291036665
          0.17580369115 -0.66740655899 0.12763108313 0.56790482998 -3.7817447186 -0.10348753631
          4.0380673409 -8.5271873474 0.43223008513 8.8838796616 -10.691867828 0.55180686712
          4.6641798019 -10.221097946 -0.20153646171 11.502953529 -12.63174057 -0.59696382284
          0 0 0 0.74689090252 -3.637275219 0.28839313984
          11.510616302 -12.67488575 -0.29651835561 0.10778386891 -0.67377144098 -0.076605916023
          9.7963380814 -12.342428207 -0.53461617231 5.9286756516 -10.328575134 0.22062389553
          0 0 0 0.42290914059 -2.5328581333 0.10236660391
          9.804980278 -12.38628006 -0.26646313071 0.084519401193 -0.70769184828 -0.032262664288
          2.8825325966 -8.4502124786 0.1600355655 1.0592200756 -5.2056164742 0.12594358623
          7.3271474838 -10.459246635 0.49670895934 0.56488722563 -3.800342083 3.5880832002e-05
          4.6751475334 -10.234283447 2.6971611078e-06 0.31408834457 -1.4715585709 0.17598427832
          2.3894393444 -8.6350231171 -0.35259753466 0.1972219497 -1.5158063173 -0.10195955634
          8.0977935791 -12.085941315 -0.47006729245 1.3581255674 -6.7616415024 -0.25098198652
          11.514332771 -12.688128471 4.2040014705e-06 0 0 0
          2.4350762367 -8.6638154984 -0.18202610314 9.8078842163 -12.399438858 4.0196928239e-06
          0.082801230252 -0.71528542042 2.5189040116e-06 8.1103515625 -12.129372597 -0.23076799512
          0.17960324883 -1.5646767616 -0.052568174899 1.3855732679 -6.8222198486 -0.12908814847
          1.9976143837 -6.7979950905 0.36514905095 2.4254462719 -8.6467571259 1.7698455395e-06
          0.73529976606 -5.1771421432 -0.19618563354 0.56791204214 -3.7817606926 0.10356032103
          3.5448346138 -10.073644638 -0.38517811894 8.1135587692 -12.139672279 3.814654292e-06
          5.9026479721 -10.296255112 0.44598537683 4.6641812325 -10.221096992 0.20154184103
          1.4027210474 -6.8364429474 4.2154413677e-05 0.17297069728 -1.5788452625 9.1896363301e-06
          0.43702587485 -2.478222847 0.20227824152 11.51061821 -12.674884796 0.29652678967
          6.5063099861 -11.955737114 -0.38966602087 0.7420437336 -5.2310767174 -0.096635334194
          0.2769510448 -2.5509727001 -0.11764672399 3.556440115 -10.123353004 -0.18558949232
          2.842366457 -8.4271965027 0.40466350317 1.0600669384 -5.1373386383 0.26053419709
          0 0 0 0.26548016071 -2.6076555252 -0.060488972813
          9.8049821854 -12.38628006 0.26647120714 0.084522172809 -0.70768755674 0.032268356532
          6.5222916603 -11.987021446 -0.20102411509 0.74317151308 -5.2501459122 4.5356955525e-05
          3.55727458 -10.142246246 2.5353213005e-06 2.435076952 -8.6638154984 0.1820294559
          6.5245904922 -11.998524666 3.5961868434e-06 0.26094308496 -2.6245086193 1.9054063159e-05
          8.1103534698 -12.129372597 0.23077565432 0.17960768938 -1.5646719933 0.052587557584
          1.3856140375 -6.822259903 0.12916785479 0.5741943121 -3.7240722179 0.20363044739
          4.6404528618 -10.19089222 0.41027763486 5.2252540588 -11.862172127 -0.38280296326
          11.502957344 -12.631739616 0.59697234631 0 0 0
          0.3544075191 -3.7993907928 -0.12610481679 0.10779261589 -0.6737652421 0.076615080237
          9.7963418961 -12.342427254 0.53462433815 0.74205440283 -5.2311053276 0.096719242632
          3.5564417839 -10.123352051 0.18559446931 5.2308712006 -11.888788223 -0.1936352849
          1.6814194918 -8.4876470566 -0.20109079778 0.34874159098 -3.8550171852 -0.063706673682
          0.26548403502 -2.6076543331 0.06052646786 6.5222935677 -11.987020493 0.20103132725
          1.6829069853 -8.5328054428 -0.11319871992 2.477493763 -9.9940471649 -0.22767856717
          0.92469406128 -6.7718715668 -0.18313281238 12.507833481 -14.398979187 -0.59088617563
          0 0 0 10.697587967 -14.110499382 -0.52821749449
          2.3894410133 -8.6350221634 0.35259988904 0.19723670185 -1.5157978535 0.10198029876
          8.0977973938 -12.085940361 0.47007504106 0.92984318733 -6.8193187714 -0.08933506906
          2.5158720016 -10.098334312 -0.14299689233 1.3581908941 -6.761724472 0.25105133653
          12.51196003 -14.442547798 -0.29362487793 0 0 0
          0.34571239352 -3.8727960587 2.8875327189e-05 5.2362260818 -11.903960228 3.3784619973e-06
          0.030957395211 -0.67449325323 -0.020028851926 10.700536728 -14.154488564 -0.26318648458
          0.024621060118 -0.71104365587 -0.0082491524518 1.6826558113 -8.5347747803 2.4465463866e-05
          8.9103384018 -13.839590073 -0.45836228132 0.93033516407 -6.8370294571 4.0152935981e-05
          2.5628557205 -10.141736031 2.1861794721e-06 12.512984276 -14.455839157 5.1852225624e-06
          0 0 0 0.06150662899 -1.5293095112 -0.027442218736
          8.9089975357 -13.883704185 -0.22794599831 10.702180862 -14.167160988 4.9526493058e-06
          0.73532181978 -5.1771783829 0.19625681639 3.5448374748 -10.073642731 0.38518279791
          0.023924883455 -0.71964865923 2.9564573651e-06 0.05488300696 -1.5811603069 -0.014052321203
          6.506313324 -11.95573616 0.38967332244 0.27696347237 -2.5509674549 0.11768329144
          0.43550041318 -5.2401614189 -0.12943172455 4.0959615707 -11.736335754 -0.3497286737
          0.34874477983 -3.8550224304 0.063761979342 5.2308731079 -11.88878727 0.19364205003
          0.43202900887 -5.289481163 -0.064954601228 4.0983204842 -11.777470589 -0.18043296039
          1.6829265356 -8.5328140259 0.11324428767 8.9106588364 -13.893832207 4.684941814e-06
          0.052513070405 -1.5968183279 8.525245903e-06 6.9626741409 -13.59224987 -0.37212184072
          0.92985755205 -6.8193440437 0.089412465692 2.5158722401 -10.098332405 0.14300107956
          12.511961937 -14.442547798 0.29363527894 0 0 0
          0.092557765543 -2.5817029476 -0.036208193749 6.9634876251 -13.628268242 -0.19618993998
          10.700538635 -14.15448761 0.26319640875 0.084324359894 -2.6407368183 -0.018588123843
          0.43021476269 -5.3064155579 3.3970307413e-05 4.1046614647 -11.791185379 3.1082311125e-06
          0.024622831494 -0.71104097366 0.0082554537803 8.9089994431 -13.883703232 0.22795541584
          6.9693226814 -13.64228344 4.4075941332e-06 0.081422634423 -2.6591410637 1.5438023183e-05
          5.2252569199 -11.862170219 0.38280972838 1.9963268042 -10.081110001 -0.22262988985
          0.054885942489 -1.5811569691 0.01406964194 0.35441949964 -3.7993922234 0.12615640461
          1.1264259815 -8.4339609146 -0.17027500272 1.9903264046 -10.136935234 -0.1201769039
          1.6814346313 -8.487663269 0.20112845302 1.1319210529 -8.4749536514 -0.084744468331
          0.43203294277 -5.2894911766 0.065020427108 4.0983219147 -11.777469635 0.18043912947
          2.4774947166 -9.9940443039 0.22768263519 0.92470312119 -6.7719035149 0.18319733441
          0.11815630645 -3.8488106728 -0.048869155347 5.7591772079 -13.5451231 -0.42274263501
          12.507837296 -14.398978233 0.59089666605 0 0 0
          10.697592735 -14.110498428 0.52822750807 0.10717589408 -3.9062077999 -0.025209991261
          2.0088131428 -10.161155701 1.1262011867e-05 0.51931703091 -6.8185920715 -0.1298058778
          2.7368478775 -11.586030006 -0.29152423143 5.7617869377 -13.570194244 -0.19947560132
          0.03096444346 -0.67448854446 0.020037168637 1.134563446 -8.4918498993 2.8259799365e-05
          6.9634895325 -13.628268242 0.19619880617 0.084327273071 -2.6407346725 0.018618764356
          2.7448570728 -11.629734039 -0.14537997544 0.5188139081 -6.8600802422 -0.064858570695
          8.9103422165 -13.839589119 0.45837178826 0.10379909724 -3.9249973297 2.1748639483e-05
          5.7659673691 -13.583781242 4.0924173845e-06 0.061516664922 -1.5293027163 0.02746033296
          2.7752201557 -11.644925117 2.6931579669e-06 13.492955208 -16.283128738 -0.58118420839
          0 0 0 0.51828318834 -6.8753786087 3.2929827285e-05
          13.495591164 -16.320817947 -0.28974574804 0 0 0
          1.9903314114 -10.136935234 0.12019732594 11.592648506 -16.004741669 -0.5300360918
          0.43550598621 -5.2401695251 0.1294901818 4.0959644318 -11.736333847 0.34973487258
          -0.052152425051 -0.66930675507 0.03863889724 1.1319322586 -8.4749650955 0.084799043834
          11.592855453 -16.041776657 -0.26396754384 -0.040623452514 -0.70605164766 0.01646395959
          6.9626774788 -13.592248917 0.37213081121 13.495005608 -16.332855225 6.2797689679e-06
          0.10717828572 -3.9062077999 0.025252770633 9.6978359222 -15.761633873 -0.47919771075
          -0.08748794347 -1.5151110888 0.050668310374 5.7617888451 -13.570193291 0.19948379695
          0 0 0 4.5908250809 -13.500070572 -0.38779222965
          0.12769268453 -5.3105368614 -0.06556827575 0.092568308115 -2.5816957951 0.036237906665
          -0.081298813224 -1.569893837 0.02644992061 9.6901769638 -15.79547596 -0.23903574049
          11.593332291 -16.053386688 5.9932276599e-06 2.7448577881 -11.629733086 0.14538538456
          0.1160781458 -5.3597865105 -0.033707778901 4.596622467 -13.527469635 -0.18931345642
          0.51881825924 -6.8600907326 0.064921744168 -0.0397840105 -0.71471524239 2.5881863621e-06
          1.3043922186 -10.116423607 -0.17646472156 9.6904850006 -15.807988167 5.6692369981e-06
          1.9963265657 -10.08111763 0.22265006602 -0.07929173857 -1.5861675739 6.7878454502e-06
          0.11282742023 -5.3770456314 2.5468372769e-05 1.3102076054 -10.152759552 -0.08535888046
          4.6017513275 -13.537994385 3.7897368657e-06 1.1264346838 -8.4339828491 0.17032417655
          13.495593071 -16.320817947 0.28975832462 7.7554297447 -15.530991554 -0.45212057233
          0.60225856304 -8.4737291336 -0.129318133 0 0 0
          -0.10864231735 -2.5683784485 0.05070060119 2.1957302094 -11.86952877 -0.41037642956
          -0.11324315518 -2.6342315674 0.025771845132 7.7435479164 -15.563187599 -0.21644942462
          11.592857361 -16.041776657 0.26397955418 0.60327392817 -8.5084009171 -0.064537234604
          2.2508511543 -11.87402153 -0.10473543406 -0.040622133762 -0.70604968071 -0.01645860821
          0.11816383153 -3.8488051891 0.048909120262 5.7591805458 -13.545122147 0.42275089025
          1.3100520372 -10.166384697 1.7253290935e-05 0.519320786 -6.818602562 0.12986253202
          2.7368502617 -11.586029053 0.29152998328 7.7469954491 -15.574737549 5.3125108934e-06
          9.6901788712 -15.79547596 0.23904712498 0.60344338417 -8.5224113464 2.6638088457e-05
          -0.08129645139 -1.569890976 -0.02643609792 -0.113977395 -2.6544830799 1.164245441e-05
          0.11607992649 -5.3597884178 0.03375736624 4.5966238976 -13.527469635 0.18932108581
          2.2350609303 -11.881651878 2.2842446015e-06 3.3562037945 -13.487194061 -0.36340236664
          0.11634478718 -6.9068932533 -0.081799656153 3.3636188507 -13.52827549 -0.16254675388
          0.10759572685 -6.9466814995 -0.042156614363 13.492959976 -16.283128738 0.58119690418
          0 0 0 1.3102124929 -10.152762413 0.085392646492
          -0.13430978358 -3.8645219803 0.032306555659 6.5746617317 -15.48431015 -0.39126008749
          -0.15100243688 -3.9297246933 0.015232563019 11.592653275 -16.004741669 0.53004825115
          -0.052147068083 -0.66930282116 -0.038632091135 6.597837925 -15.504181862 -0.18485288322
          7.7435503006 -15.563186646 0.21646009386 0.60327756405 -8.5084085464 0.064589068294
          -0.11324066669 -2.6342287064 -0.025748716667 2.2508530617 -11.874020576 0.10474031419
          3.3670380116 -13.536156654 3.5126213334e-06 0.10523597151 -6.9622855186 2.5302750146e-05
          9.6978397369 -15.761632919 0.47920921445 -0.087480016053 -1.5151046515 -0.050653990358
          4.5908284187 -13.500069618 0.38779994845 -0.15468102694 -3.9514331818 1.5839632397e-05
          0.12769685686 -5.3105330467 0.065614201128 6.588309288 -15.506256104 4.8095880629e-06
          14.451938629 -18.255842209 -0.56953519583 0 0 0
          1.3043916225 -10.116431236 0.17649568617 3.3636202812 -13.52827549 0.16255386174
          0 0 0 12.472418785 -17.984977722 -0.5294906497
          0.6837463975 -10.164923668 -0.12553712726 0.10759697109 -6.9466843605 0.042206004262
          -0.1363774389 -0.66585117579 0.094158530235 1.4686282873 -11.853955269 -0.13594709337
          14.454654694 -18.285827637 -0.28450906277 7.7554340363 -15.530990601 0.45213139057
          12.47328949 -18.01408577 -0.26473399997 -0.10496237129 -0.69707655907 0.039939057082
          0.60225713253 -8.4737358093 0.12936502695 0.68571388721 -10.198932648 -0.063816778362
          -0.10863444209 -2.5683705807 -0.050677888095 5.0659070015 -15.312208176 -0.34372994304
          -0.15100045502 -3.9297223091 -0.015201368369 2.1957337856 -11.869527817 0.41038158536
          -0.19351425767 -5.3843245506 -0.0012683833484 6.5978398323 -15.504180908 0.18486250937
          1.4644496441 -11.901445389 -0.095090195537 -0.21609945595 -5.4385466576 -0.0030619022436
          5.0831460953 -15.331000328 -0.17587007582 10.506580353 -17.734897614 -0.49349674582
          14.453640938 -18.295625687 7.4983840932e-06 -0.24360860884 -1.4754710197 0.13523629308
          0 0 0 10.50116539 -17.762365341 -0.24642002583
          -0.21877351403 -1.5302716494 0.069643944502 12.473135948 -18.023822784 7.1524495979e-06
          2.4076399803 -13.586005211 -0.18068344891 0.68782234192 -10.2113657 1.8980568711e-05
          1.4685903788 -11.894983292 1.001973942e-05 0.094113320112 -8.5700979233 -0.091738164425
          -0.10340773314 -0.70503401756 1.8665631387e-06 2.4071614742 -13.66656208 -0.11149248481
          5.082821846 -15.335569382 4.6162062972e-06 0.089900910854 -8.6035413742 -0.047506574541
          -0.22113774717 -5.4588212967 1.8206947061e-05 3.3562071323 -13.487193108 0.36340966821
          10.500067711 -17.771808624 6.7655364546e-06 0.11634455621 -6.9068908691 0.081845127046
          -0.21113072336 -1.5454521179 4.8206188694e-06 8.5220842361 -17.500051498 -0.45898774266
          14.454657555 -18.285827637 0.28452408314 2.399671793 -13.668656349 3.3272117435e-06
          -0.32481300831 -2.5045924187 0.15409128368 -0.13430376351 -3.8645133972 -0.032276660204
          0.08897703141 -8.6174840927 2.1982401449e-05 6.5746650696 -15.484309196 0.39126974344
          0 0 0 8.5158309937 -17.524835587 -0.22982248664
          -0.32007545233 -2.5814580917 0.079697445035 12.473292351 -18.014083862 0.26474833488
          0.68571561575 -10.198935509 0.063853867352 1.4644508362 -11.901445389 0.095109418035
          -0.10496132076 -0.69707494974 -0.039935171604 5.0831480026 -15.330999374 0.17587932944
          -0.21609823406 -5.4385452271 0.0030976911075 10.501168251 -17.762365341 0.24643358588
          8.5139284134 -17.534349442 6.348082934e-06 3.840159893 -15.171707153 -0.306168437
          -0.30311518908 -7.0403237343 -0.038943223655 -0.31680220366 -2.6030220985 8.0822646851e-06
          -0.21877159178 -1.530269146 -0.069634094834 -0.32082355022 -7.0822591782 -0.021605243906
          2.4071633816 -13.666561127 0.11149916053 3.8370668888 -15.210650444 -0.15663520992
          0.089901395142 -8.6035432816 0.047549474984 7.0150671005 -17.359472275 -0.2240806818
          14.451943398 -18.255842209 0.56955033541 0 0 0
          -0.40805122256 -3.8348147869 0.13152529299 7.0352725983 -17.312969208 -0.1419864893
          12.472423553 -17.984977722 0.52950507402 -0.43001261353 -3.9196667671 0.06503688544