<?xml version="1.0"?>
<VTKFile type="UnstructuredGrid" version="0.1" byte_order="LittleEndian" header_type="UInt32" compressor="vtkZLibDataCompressor">
  <UnstructuredGrid>
    <Piece NumberOfPoints="6405" NumberOfCells="4800">
      <PointData>
        <DataArray type="Float32" Name="DISPLACEMENT" NumberOfComponents="3" ComponentName0="X-DISPLACEMENT" ComponentName1="Y-DISPLACEMENT" ComponentName2="Z-DISPLACEMENT" format="ascii" RangeMin="0" RangeMax="292.46245024">
          0 0 0 0 0 0
          2.4111385345 -1.4411151409 -1.0985920429 0 0 0
          1.4761458635 -0.8198004961 -0.79442763329 0 0 0
          2.2119860649 -1.6170687675 -0.4321655333 1.2840503454 -0.96924674511 -0.32272538543
          0 0 0 4.3329763412 -2.845654726 -1.1078256369
          0 0 0 4.2753615379 -3.03804636 -0.56801742315
          2.9767587185 -2.3716568947 -0.88736957312 0 0 0
          0 0 0 2.2205784321 -1.6697332859 -1.8191142814e-08
          0.93024116755 -0.50260680914 -0.52077502012 1.2773369551 -0.99345010519 -3.0714961685e-09
          2.9083108902 -2.5262572765 -0.45284861326 0.78592574596 -0.64679765701 -0.21082997322
          4.2259135246 -3.0898399353 -9.8450341213e-09 1.9340120554 -1.9724831581 -0.65642416477
          0 0 0 2.8686375618 -2.5741250515 1.5500649653e-08
          1.8358509541 -2.1140384674 -0.33555060625 0 0 0
          6.0008482933 -4.693353653 -1.010872364 0 0 0
          0.77656245232 -0.66361987591 7.3956609725e-09 0 0 0
          0 0 0 2.2119860649 -1.6170687675 0.4321655035
          4.352288723 -4.2735362053 -0.86538255215 6.0210103989 -4.8143672943 -0.51711672544
          0.22526209056 -0.32505643368 -0.20576716959 1.2840503454 -0.96924674511 0.32272538543
          4.3625597954 -4.3858628273 -0.44051006436 0.093201041222 -0.49013140798 -0.10633880645
          1.8021917343 -2.1517145634 3.4889907852e-08 4.2753615379 -3.03804636 0.56801742315
          0 0 0 0 0 0
          0.63811403513 -1.7299240828 -0.42708480358 3.018586874 -3.9709210396 -0.72649228573
          6.0025777817 -4.8594927788 1.8187348516e-08 2.9083108902 -2.5262572765 0.45284864306
          2.9865250587 -4.0662026405 -0.37383908033 0.78592580557 -0.64679765701 0.21082998812
          4.352394104 -4.4242858887 5.3333600647e-08 0.52549779415 -1.8640877008 -0.2340221405
          0.07018455863 -0.5083078146 1.3839378532e-08 0 0 0
          7.4662098885 -6.6992878914 -0.88087880611 0 0 0
          5.6384043694 -6.3282818794 -0.80154931545 1.8358509541 -2.1140384674 0.33555069566
          7.5126414299 -6.7705073357 -0.44977155328 2.4111385345 -1.4411152601 1.0985920429
          0 0 0 0 0 0
          0.5062353611 -1.8999590874 4.9351953635e-08 2.9757990837 -4.1020989418 8.0882443854e-08
          -0.14857269824 -0.37961137295 -0.0078615089878 5.6794686317 -6.3986697197 -0.40575519204
          1.4761458635 -0.81980055571 0.79442763329 1.4309648275 -3.6712412834 -0.65979129076
          0 0 0 6.0210103989 -4.8143672943 0.51711672544
          -0.241137743 -0.53086197376 -0.021750697866 1.3848978281 -3.7318806648 -0.32299882174
          4.3625597954 -4.3858628273 0.44051018357 0.093201063573 -0.49013140798 0.10633883625
          4.0476875305 -6.0598492622 -0.7408785224 0.025807604194 -1.6371740103 -0.41580551863
          7.5127868652 -6.7987241745 6.7813239468e-08 4.3329763412 -2.8456549644 1.1078256369
          0 0 0 0 0 0
          4.0685167313 -6.1308116913 -0.37365525961 2.9767589569 -2.3716571331 0.88736963272
          5.6854186058 -6.4283027649 1.1124920007e-07 -0.060965791345 -1.6959112883 -0.21864661574
          0.93024122715 -0.50260686874 0.52077507973 -0.23834706843 -0.5772215724 1.2363554625e-09
          1.3862212896 -3.7656011581 1.0453805999e-07 2.9865252972 -4.0662026405 0.37383925915
          0.52549785376 -1.8640877008 0.23402224481 4.0704874992 -6.1646418571 1.4619007516e-07
          1.9340122938 -1.9724831581 0.65642428398 0.049489635974 -1.7569241524 2.6934046105e-08
          2.7040958405 -5.8697834015 -0.692248106 7.5126414299 -6.7705073357 0.44977170229
          6.0008487701 -4.693353653 1.010872364 0 0 0
          8.7800245285 -8.7499866486 -0.7808380127 0 0 0
          0 0 0 0.9946770072 -3.5971820354 -0.85962629318
          2.7333118916 -5.9589033127 -0.31848829985 8.8266887665 -8.7952032089 -0.39533481002
          6.8450756073 -8.3913698196 -0.72687339783 5.6794686317 -6.3986697197 0.40575543046
          0.41618862748 -0.92795556784 -0.40520769358 0 0 0
          4.3522891998 -4.2735362053 0.86538267136 0.22526215017 -0.32505646348 0.2057672143
          1.1865837574 -3.6481649876 -0.35291960835 -0.24113769829 -0.53086191416 0.021750703454
          0.29848006368 -0.91332197189 -0.13329185545 1.3848979473 -3.7318806648 0.32299903035
          6.8898568153 -8.4432659149 -0.36656218767 4.0685172081 -6.1308116913 0.37365555763
          2.7297663689 -5.9830765724 1.7744513059e-07 8.8353652954 -8.8139324188 1.4003782667e-07
          0.73471474648 -2.1045651436 -0.61493313313 -0.060965657234 -1.6959112883 0.21864666045
          0 0 0 5.1322712898 -8.049911499 -0.66356503963
          0.63811415434 -1.729924202 0.42708495259 3.018586874 -3.970921278 0.72649246454
          1.2823126316 -3.7385859489 1.1571044212e-07 6.9006729126 -8.4644527435 1.8947611125e-07
          0.30727458 -0.95087879896 -1.3103215402e-08 0.6674503684 -2.108032465 -0.28027501702
          5.1697502136 -8.1185512543 -0.33647981286 7.4662103653 -6.6992883682 0.88087898493
          0 0 0 2.13737607 -5.9697232246 -0.30108463764
          5.6384043694 -6.3282818794 0.80154955387 0.6459890008 -2.1293127537 1.9561300135e-08
          2.1647713184 -6.1482200623 -0.18629600108 5.1753258705 -8.1430997849 2.3112892222e-07
          -0.14857262373 -0.37961131334 0.0078614996746 2.73331213 -5.9589033127 0.31848865747
          3.6749889851 -7.7048749924 -0.5387237668 8.8266887665 -8.7952032089 0.39533510804
          1.05364573 -3.8579552174 -0.62379205227 1.4309649467 -3.6712412834 0.65979152918
          0 0 0 1.1865844727 -3.648165226 0.35291984677
          3.6927022934 -7.8134875298 -0.27361547947 0.29848015308 -0.91332197189 0.13329184055
          1.035392642 -3.9244446754 -0.29355153441 6.8898568153 -8.4432659149 0.3665625751
          4.0476875305 -6.0598497391 0.74087882042 0.025807965547 -1.6371740103 0.41580575705
          9.9914693832 -10.828606606 -0.71247631311 0 0 0
          2.14772892 -6.1549301147 2.1057422828e-07 7.9911942482 -10.487762451 -0.66808110476
          10.028206825 -10.863755226 -0.35844674706 0 0 0
          0.46517473459 -1.0973755121 -0.37785020471 8.0264415741 -10.52980423 -0.33489143848
          3.6901762486 -7.8357586861 2.6932002584e-07 0.35643526912 -1.1208275557 -0.16404771805
          0.66745048761 -2.108032465 0.28027510643 1.0154266357 -3.9421482086 1.5430218525e-07
          5.1697502136 -8.1185522079 0.3364802897 6.1855750084 -10.174003601 -0.61250430346
          0.78653305769 -2.448381424 -0.51006877422 10.038348198 -10.87782383 2.3284199813e-07
          0 0 0 0.71087121964 -2.4971811771 -0.26352414489
          6.2101531029 -10.228333473 -0.30673256516 8.0371389389 -10.54628849 2.8672661756e-07
          0.35092577338 -1.1227041483 -9.7429566637e-09 2.7040960789 -5.8697834015 0.69224852324
          2.1781601906 -7.4686560631 -0.28467822075 8.7800245285 -8.7499866486 0.78083831072
          0 0 0 1.535667181 -6.317937851 -0.32942909002
          2.1647715569 -6.1482200623 0.18629643321 0.99467790127 -3.5971825123 0.85962665081
          6.8450760841 -8.3913698196 0.72687381506 0.41618877649 -0.92795556784 0.40520772338
          1.3780499697 -6.324192524 -0.12711952627 2.1666560173 -7.6150817871 -0.18119376898
          3.6927025318 -7.8134875298 0.27361601591 1.0353927612 -3.9244446754 0.29355180264
          6.2179169655 -10.247078896 3.3277609646e-07 0.68990147114 -2.5058028698 4.4000604049e-08
          4.5568723679 -9.920832634 -0.52605867386 1.0882059336 -4.2648620605 -0.55784589052
          0.73471498489 -2.1045651436 0.61493325233 10.028206825 -10.863755226 0.3584472239
          5.1322712898 -8.049911499 0.66356551647 0 0 0
          2.1779835224 -7.6421575546 3.1443801163e-07 1.4621273279 -6.4043860435 1.6007504655e-07
          4.5532002449 -9.986166954 -0.26744648814 8.0264425278 -10.52980423 0.33489203453
          1.057870388 -4.3244190216 -0.27807363868 0.35643532872 -1.1208275557 0.16404773295
          2.1373765469 -5.9697237015 0.30108505487 4.5588421822 -10.008221626 3.7742410086e-07
          6.2101531029 -10.228333473 0.30673325062 0.71087133884 -2.4971811771 0.26352423429
          1.0441941023 -4.3383803368 1.2856827425e-07 11.126332283 -12.945793152 -0.66935533285
          0 0 0 11.152407646 -12.977784157 -0.33539199829
          3.6749892235 -7.7048749924 0.53872430325 9.0562286377 -12.634997368 -0.62864887714
          1.0536459684 -3.8579554558 0.62379223108 1.7800472975 -7.9996495247 -0.63628512621
          0.38688650727 -1.1879521608 -0.30458953977 1.3780499697 -6.324192524 0.1271199435
          2.1666562557 -7.6150817871 0.18119440973 0 0 0
          9.0813379288 -12.670968056 -0.31379312277 1.7568292618 -7.9419932365 -0.25618904829
          0.29880315065 -1.2361676693 -0.12882825732 2.6860098839 -9.6900510788 -0.45626696944
          1.4886646271 -6.4839267731 -0.6032962203 9.9914703369 -10.828606606 0.71247678995
          0 0 0 7.991194725 -10.487763405 0.6680817008
          11.161087036 -12.989995956 3.439923546e-07 1.5029342175 -6.4770798683 -0.30842068791
          2.666189909 -9.7516050339 -0.22489599884 0.4651748538 -1.0973755121 0.37785026431
          7.1262340546 -12.387001991 -0.58637434244 0.68137186766 -2.658539772 -0.40180203319
          0 0 0 4.5532007217 -9.9861679077 0.267447263
          1.0578705072 -4.3244190216 0.2780738771 9.0897703171 -12.68466568 4.0035376969e-07
          1.8218994141 -8.0270347595 3.455023716e-07 7.1463713646 -12.425141335 -0.29213047028
          0.62157136202 -2.7301766872 -0.2068400085 0.29458498955 -1.2452125549 1.6919093682e-08
          6.1855750084 -10.174004555 0.61250501871 0.7865332365 -2.4483816624 0.51006889343
          2.6882867813 -9.7764434814 4.2001366296e-07 1.4947804213 -6.4924516678 2.249301474e-07
          2.1781606674 -7.4686560631 0.2846788764 7.1525588036 -12.440137863 4.5269308657e-07
          0.60117292404 -2.7478599548 8.5147497941e-08 1.5356675386 -6.3179383278 0.32942947745
          11.1524086 -12.977784157 0.33539268374 5.3177680969 -12.250074387 -0.55130648613
          0 0 0 0.9754114747 -4.4797725677 -0.46005278826
          5.3257594109 -12.283189774 -0.27602753043 9.0813388824 -12.670968056 0.31379392743
          0.29880321026 -1.2361676693 0.12882831693 1.7568295002 -7.9419932365 0.25618973374
          0.9431733489 -4.5572667122 -0.23990561068 4.5568728447 -9.9208335876 0.52605944872
          2.1950922012 -10.014138222 -0.69958746433 2.6661901474 -9.7516059875 0.2248968482
          1.0882062912 -4.2648625374 0.55784618855 1.5029344559 -6.4770798683 0.30842113495
          1.8106076717 -9.0009374619 -0.67855501175 2.2809433937 -9.9824867249 -0.27040413022
          5.3306560516 -12.302555084 4.9729482043e-07 7.1463713646 -12.425141335 0.29213136435
          0.62157148123 -2.7301766872 0.20684020221 1.8601148129 -9.0391931534 -0.32763275504
          0.93445599079 -4.5784082413 1.7516782691e-07 12.206840515 -15.101399422 -0.64374053478
          0 0 0 0.27760237455 -1.2537498474 -0.21565291286
          2.2709248066 -10.008692741 4.6620795047e-07 3.6213343143 -12.159978867 -0.57125651836
          10.05351162 -14.803486824 -0.60025584698 11.126332283 -12.945793152 0.66935604811
          0 0 0 0 0 0
          1.8819298744 -9.1009140015 3.1439506643e-07 1.3083204031 -6.7125315666 -0.51994246244
          12.223991394 -15.135069847 -0.32214218378 3.6377191544 -12.191251755 -0.25806215405
          10.071775436 -14.839961052 -0.29891681671 9.0562286377 -12.634997368 0.62864971161
          0.21639063954 -1.3089458942 -0.090113319457 1.7800476551 -7.9996495247 0.63628584146
          0.38688662648 -1.18795228 0.30458962917 1.2866098881 -6.8057222366 -0.27580437064
          5.3257594109 -12.283189774 0.27602854371 0.94317346811 -4.5572667122 0.23990596831
          7.977976799 -14.576379776 -0.55178415775 2.6860103607 -9.6900510788 0.45626786351
          1.4886649847 -6.4839267731 0.60329669714 0 0 0
          0.49011713266 -2.7811517715 -0.27797326446 12.230772972 -15.147257805 4.6784623464e-07
          0.21312183142 -1.321095705 7.0249072337e-08 3.6444642544 -12.205544472 5.5255696907e-07
          7.9991083145 -14.612577438 -0.27556031942 7.1262345314 -12.387001991 0.58637529612
          10.077674866 -14.852704048 5.2788317362e-07 0.68137210608 -2.6585400105 0.4018022418
          1.2958470583 -6.8297243118 2.5874268772e-07 0.45151799917 -2.8620650768 -0.14390094578
          2.2809438705 -9.9824867249 0.27040505409 1.8601150513 -9.0391921997 0.32763341069
          1.1746438742 -10.31678772 -0.45532226562 8.0039215088 -14.6251297 5.8292903304e-07
          0.43833526969 -2.8846945763 1.7120630957e-07 1.1979779005 -10.379133224 -0.25015333295
          6.0332965851 -14.437663078 -0.51114052534 0 0 0
          0.68899023533 -4.6262993813 -0.3118082881 12.223991394 -15.135069847 0.32214310765
          0.21639069915 -1.3089458942 0.090113468468 3.6377196312 -12.191251755 0.25806325674
          6.0598635674 -14.47129631 -0.25476890802 5.3177685738 -12.250074387 0.55130749941
          10.071775436 -14.839961052 0.29891785979 2.6840672493 -12.336791039 -0.35551658273
          1.6777061224 -9.3094577789 -0.62489372492 0.97541177273 -4.4797725677 0.46005317569
          0.67247313261 -4.7314391136 -0.16274146736 1.2866101265 -6.8057222366 0.27580487728
          2.7096192837 -12.424242973 -0.2047406286 1.6774692535 -9.3937320709 -0.28243854642
          1.1999667883 -10.35559082 5.2077785995e-07 2.1950929165 -10.014139175 0.69958847761
          7.9991087914 -14.612577438 0.27556148171 1.8106080294 -9.0009374619 0.67855572701
          6.0614132881 -14.483441353 6.4790020815e-07 0.45151811838 -2.8620650768 0.14390130341
          0.667973876 -4.759472847 2.686865912e-07 2.7055315971 -12.421248436 6.5059958843e-07
          1.6646177769 -9.4248857498 3.0704964615e-07 0.8890119791 -6.8485312462 -0.32541108131
          4.3896870613 -14.338985443 -0.46094882488 12.206840515 -15.101399422 0.64374148846
          0 0 0 1.1979782581 -10.379133224 0.25015437603
          0.27760252357 -1.2537499666 0.21565309167 0.89455342293 -6.975525856 -0.17592442036
          3.6213350296 -12.159978867 0.57125765085 10.05351162 -14.803486824 0.60025691986
          4.4119052887 -14.378578186 -0.23139932752 13.263427734 -17.304534912 -0.63302564621
          0 0 0 1.3083208799 -6.7125315666 0.51994305849
          13.273125648 -17.343494415 -0.31577178836 0.15757283568 -1.3064231873 -0.12792062759
          11.024548531 -17.004272461 -0.5787127614 6.0598640442 -14.47129631 0.25477018952
          0 0 0 0.67247331142 -4.7314391136 0.1627419889
          11.035568237 -17.045576096 -0.28883126378 0.12393853068 -1.3593856096 -0.053051605821
          2.7096195221 -12.424242973 0.2047418803 1.677469492 -9.3937320709 0.28243923187
          7.9779772758 -14.576379776 0.55178534985 0.9033151269 -7.0110373497 3.3659185306e-07
          4.4106817245 -14.387172699 7.046901942e-07 0.49011740088 -2.78115201 0.27797362208
          1.4831402302 -12.445272446 -0.46912938356 0.26567396522 -2.8680422306 -0.15588191152
          8.7992563248 -16.744586945 -0.52010971308 1.5929423571 -13.905439377 -0.35067698359
          13.277854919 -17.356405258 6.0085432096e-07 0 0 0
          1.4691520929 -12.435186386 -0.22665928304 11.039345741 -17.059022903 6.6309775093e-07
          0.12291286141 -1.3719081879 1.2983805675e-07 8.8159999847 -16.78796196 -0.25714123249
          0.25193834305 -2.9478828907 -0.080459587276 1.6010869741 -14.092848778 -0.27454409003
          1.1746444702 -10.31678772 0.45532330871 1.4988644123 -12.461285591 6.5452786657e-07
          1.0282503366 -9.7179174423 -0.34765020013 0.89455366135 -6.975525856 0.17592509091
          2.7889130116 -14.212688446 -0.36330685019 8.82026577 -16.799343109 7.2457447686e-07
          6.0332970619 -14.437663078 0.51114183664 4.4119057655 -14.378578186 0.23140072823
          1.6777904034 -14.144000053 3.86444583e-07 0.24646236002 -2.9715776443 2.754420052e-07
          0.68899059296 -4.6262993813 0.31180882454 13.273125648 -17.343494415 0.31577301025
          6.6833033562 -16.612533569 -0.44142153859 1.0631378889 -9.9291210175 -0.17161045969
          0.35514828563 -4.7245674133 -0.15268103778 2.7908391953 -14.258396149 -0.20036108792
          2.6840677261 -12.336791039 0.35551771522 1.6777067184 -9.3094577789 0.62489444017
          0 0 0 0.36422136426 -4.8280434608 -0.081034846604
          11.035569191 -17.045576096 0.28883260489 0.12393858284 -1.3593856096 0.05305185914
          6.703186512 -16.647460938 -0.22415854037 1.0887800455 -9.9783306122 3.9136139662e-07
          2.8056595325 -14.269461632 7.20940875e-07 1.4691525698 -12.435186386 0.22666056454
          6.7040266991 -16.656288147 7.5384889442e-07 0.36675828695 -4.8591146469 3.8111465983e-07
          8.8159999847 -16.78796196 0.2571426928 0.25193846226 -2.9478828907 0.080460131168
          1.6010876894 -14.092847824 0.27454486489 0.88901239634 -6.848531723 0.32541179657
          4.3896875381 -14.338986397 0.46095016599 4.9071798325 -16.61205101 -0.40987628698
          13.263428688 -17.304534912 0.6330268383 0 0 0
          0.41690790653 -6.9780035019 -0.12509320676 0.1575730592 -1.3064233065 0.12792091072
          11.024549484 -17.004272461 0.5787140727 1.0631382465 -9.9291210175 0.17161126435
          2.7908394337 -14.258396149 0.20036254823 4.9224071503 -16.630815506 -0.20874845982
          0.87560260296 -12.879769325 -0.68630874157 0.44948628545 -7.1118006706 -0.06599240005
          0.36422157288 -4.8280434608 0.081035606563 6.703186512 -16.647460938 0.22416007519
          0.92436677217 -12.799476624 -0.32611235976 2.0331757069 -14.66313076 -0.61210942268
          1.627874136 -13.603373528 -0.27653604746 14.319871902 -19.586080551 -0.63045704365
          0 0 0 11.984723091 -19.282024384 -0.57059836388
          1.4831409454 -12.445273399 0.46913063526 0.26567429304 -2.8680422306 0.15588244796
          8.7992563248 -16.744586945 0.52011114359 1.6099015474 -13.610628128 -0.1875333041
          2.0877864361 -14.619073868 -0.23518452048 1.5929435492 -13.905438423 0.35067808628
          14.323539734 -19.629060745 -0.31423744559 0 0 0
          0.45964366198 -7.1522741318 4.4280798761e-07 4.9239315987 -16.644006729 7.8313991025e-07
          0.048206742853 -1.3541406393 -0.050722874701 11.988750458 -19.326848984 -0.28442102671
          0.039891999215 -1.3987067938 -0.02100225538 0.93510019779 -12.806158066 6.6621254291e-07
          9.6606702805 -19.007059097 -0.50308978558 1.6707954407 -13.67064476 3.7345060377e-07
          2.0847358704 -14.642249107 6.8066702852e-07 14.325885773 -19.643014908 7.3979902027e-07
          0 0 0 0.063658967614 -2.9234788418 -0.046417165548
          9.6648111343 -19.053985596 -0.25002738833 11.990915298 -19.340829849 8.0760048604e-07
          1.0282508135 -9.7179174423 0.34765103459 2.7889137268 -14.212688446 0.36330837011
          0.041271422058 -1.410063386 2.0466505646e-07 0.073718614876 -2.9923799038 -0.024471983314
          6.683303833 -16.612533569 0.44142314792 0.35514864326 -4.7245674133 0.15268178284
          0.49213254452 -9.724902153 -0.039218068123 3.3609743118 -16.659513474 -0.46075931191
          0.44948652387 -7.1118006706 0.065993271768 4.9224071503 -16.630815506 0.20875008404
          0.5515832305 -9.8963470459 -0.022183582187 3.3767290115 -16.667734146 -0.2065872997
          0.9243671298 -12.799476624 0.32611367106 9.6675729752 -19.066453934 8.7106843694e-07
          0.076114565134 -3.0137224197 4.0202746732e-07 7.2006082535 -18.778623581 -0.42099404335
          1.6099017859 -13.610628128 0.18753409386 2.0877866745 -14.619073868 0.23518593609
          14.323539734 -19.629060745 0.31423893571 0 0 0
          0.074257567525 -4.7673335075 -0.017052968964 7.2123427391 -18.820625305 -0.2122682482
          11.988751411 -19.326848984 0.28442263603 0.10369610041 -4.8584551811 -0.010119312443
          0.55325496197 -9.9588794708 4.5917727221e-07 3.3869178295 -16.677764893 8.8176358304e-07
          0.039892062545 -1.3987066746 0.02100264281 9.6648111343 -19.053987503 0.25002914667
          7.2186832428 -18.830944061 9.1188195483e-07 0.11312802881 -4.8873577118 5.2411718343e-07
          4.9071807861 -16.61205101 0.40987804532 1.1728835106 -15.018547058 -0.5873465538
          0.073718763888 -2.9923796654 0.024472771212 0.41690832376 -6.9780035019 0.12509407103
          1.6175140142 -14.783747673 -0.52713775635 1.2231465578 -15.011551857 -0.29050627351
          0.87560325861 -12.879769325 0.68630999327 1.6798739433 -15.278896332 -0.24115283787
          0.55158346891 -9.8963470459 0.022184515372 3.3767297268 -16.667734146 0.20658907294
          2.0331761837 -14.66313076 0.6121109128 1.6278744936 -13.603373528 0.27653703094
          0.091419860721 -6.9731206894 0.037199791521 5.2817134857 -18.796945572 -0.37661966681
          14.319872856 -19.586082458 0.63045853376 0 0 0
          11.984724045 -19.282024384 0.5705999732 0.14446148276 -7.0815463066 0.017164532095
          1.2291498184 -14.993732452 8.5065249777e-07 0.66873008013 -12.927167892 0.09860572964
          2.3836648464 -16.855476379 -0.37465244532 5.2988734245 -18.804363251 -0.19450493157
          0.048207011074 -1.3541406393 0.050723277032 1.7188185453 -15.456784248 7.6142936223e-07
          7.2123432159 -18.820625305 0.21227011085 0.10369632393 -4.8584547043 0.010120335035
          2.3891217709 -16.880537033 -0.19907955825 0.64173036814 -13.330159187 -0.010441427119
          9.6606712341 -19.007059097 0.50309157372 0.16191583872 -7.1195731163 5.4698631402e-07
          5.3060445786 -18.810974121 9.782863799e-07 0.063659340143 -2.9234786034 0.046417910606
          2.3840889931 -16.874998093 1.0334094895e-06 15.37467289 -21.967014313 -0.63072293997
          0 0 0 0.63425898552 -13.52038765 5.8819375681e-07
          15.374960899 -22.010656357 -0.31467658281 0 0 0
          1.2231467962 -15.011551857 0.29050794244 12.946749687 -21.664653778 -0.57174175978
          0.49213299155 -9.724902153 0.03921898827 3.3609755039 -16.659513474 0.46076112986
          -0.0304118637 -1.3933143616 0.0053478055634 1.679874301 -15.278896332 0.24115435779
          12.946265221 -21.708890915 -0.28493723273 -0.017471354455 -1.4250760078 0.00088382168906
          7.2006092072 -18.778623581 0.4209959805 15.3754673 -22.02497673 8.834006735e-07
          0.14446175098 -7.0815463066 -0.017163461074 10.500213623 -21.396558762 -0.51019126177
          -0.073796018958 -2.9381830692 0.041120186448 5.2988739014 -18.804363251 0.19450691342
          0 0 0 3.9582204819 -18.782302856 -0.39523074031
          0.13539288938 -9.5899238586 0.12927763164 0.074257947505 -4.7673335075 0.017053939402
          -0.042062722147 -2.9915235043 0.018674239516 10.497992516 -21.440010071 -0.25402313471
          12.946760178 -21.723144531 9.5788527688e-07 2.3891217709 -16.88053894 0.19908155501
          0.22651961446 -9.7339038849 0.064656078815 3.9622089863 -18.782926559 -0.19951821864
          0.64173054695 -13.330159187 0.01044263225 -0.014165177941 -1.4359738827 2.7718292017e-07
          1.1138492823 -16.023942947 -0.61058026552 10.499189377 -21.454471588 1.0321426771e-06
          1.1728841066 -15.018548012 0.58734828234 -0.033370584249 -3.009581089 5.4791723869e-07
          0.25266984105 -9.8041477203 4.9502114052e-07 1.3433332443 -16.357746124 -0.28011974692
          3.9620740414 -18.78604126 1.0966725768e-06 1.6175144911 -14.78374958 0.52713912725
          15.374960899 -22.010656357 0.31467834115 8.0464630127 -21.138391495 -0.45911005139
          0.77268224955 -15.154033661 -0.14643138647 0 0 0
          -0.11374597251 -4.7201428413 0.099377833307 1.6060291529 -17.197738647 -0.49721613526
          -0.066409699619 -4.7951817513 0.048038359731 8.0429010391 -21.181091309 -0.22334563732
          12.946266174 -21.708890915 0.28493914008 0.86868417263 -15.492809296 -0.047685984522
          1.6129983664 -17.167984009 -0.23884913325 -0.017471278086 -1.4250757694 -0.00088326085825
          0.0914202407 -6.9731202126 -0.037198763341 5.2817144394 -18.796945572 0.37662175298
          1.4271774292 -16.514438629 9.5849577519e-07 0.66873043776 -12.927167892 -0.09860444814
          2.3836653233 -16.855476379 0.37465426326 8.0452804565 -21.19502449 1.1166197282e-06
          10.497993469 -21.440010071 0.25402522087 0.88506472111 -15.608669281 9.0433371724e-07
          -0.042062498629 -2.9915232658 -0.018673157319 -0.05112477392 -4.8196511269 6.9084131837e-07
          0.22651992738 -9.7339038849 -0.064655072987 3.9622094631 -18.782926559 0.19952039421
          1.6389398575 -17.187994003 1.0199878488e-06 2.5929336548 -18.697761536 -0.39771649241
          0.33179581165 -12.321800232 0.29605859518 2.5859818459 -18.697368622 -0.20254077017
          0.46779599786 -12.698314667 0.1878709048 15.374673843 -21.967014313 0.63072472811
          0 0 0 1.3433334827 -16.357746124 0.28012162447
          -0.12161804736 -6.829744339 0.1615806818 5.7411875725 -20.773094177 -0.40249615908
          -0.060936633497 -6.9232950211 0.081745386124 12.946750641 -21.664653778 0.57174366713
          -0.030411522835 -1.3933141232 -0.0053472798318 5.7405085564 -20.772291183 -0.19740325212
          8.0429010391 -21.181091309 0.22334785759 0.86868453026 -15.492809296 0.047687742859
          -0.066409386694 -4.7951812744 -0.048037018627 1.6129986048 -17.167984009 0.23885117471
          2.5888524055 -18.70116806 1.1325940932e-06 0.51409369707 -12.876629829 5.3053406646e-07
          10.500214577 -21.396558762 0.51019334793 -0.073795504868 -2.9381825924 -0.041119217873
          3.9582211971 -18.782302856 0.39523282647 -0.037736531347 -6.9529051781 6.6461643655e-07
          0.13539329171 -9.5899238586 -0.12927661836 5.7492098808 -20.778024673 1.2155720697e-06
          16.427223206 -24.44701767 -0.63081008196 0 0 0
          1.1138499975 -16.023942947 0.61058205366 2.5859818459 -18.697368622 0.20254302025
          0 0 0 13.902895927 -24.146362305 -0.57378029823
          1.0600368977 -16.499155045 -0.16803386807 0.4677965045 -12.698314667 -0.18786983192
          -0.02402308397 -1.3997052908 0.026978589594 0.94452655315 -17.559904099 -0.55562180281
          16.426446915 -24.489274979 -0.31497389078 8.0464630127 -21.138391495 0.45911222696
          13.901425362 -24.188304901 -0.28699293733 0.0022771202493 -1.4250669479 0.0045542726293
          0.7726829052 -15.154034615 0.1464330703 1.0957620144 -16.759378433 -0.053289324045
          -0.11374546587 -4.7201423645 -0.099376641214 4.3806834221 -20.78147316 -0.41594925523
          -0.060936309397 -6.9232950211 -0.081744097173 1.6060297489 -17.197738647 0.49721822143
          -0.075525015593 -9.2921495438 0.24893927574 5.7405090332 -20.772291183 0.19740565121
          1.0283466578 -17.566051483 -0.27814275026 0.021489640698 -9.3798418045 0.12796221673
          4.3769087791 -20.784229279 -0.20729750395 11.376627922 -23.865894318 -0.5195351243
          16.425962448 -24.5031147 1.0286878478e-06 -0.093601003289 -2.8949809074 0.095158234239
          0 0 0 11.372615814 -23.908315659 -0.25875386596
          -0.042876336724 -2.9351577759 0.040114890784 13.90110302 -24.202302933 1.1098657069e-06
          1.9099830389 -19.025836945 -0.52896487713 1.0963654518 -16.860639572 1.0367568848e-06
          1.0526812077 -17.584249496 1.0875909311e-06 0.79871302843 -14.745696068 0.49898037314
          0.01137951389 -1.4418731928 4.2720100168e-07 1.95040977 -19.003854752 -0.22494505346
          4.3798084259 -20.791225433 1.2295153056e-06 0.68957293034 -14.949278831 0.28103974462
          0.051716078073 -9.4375228882 4.7293912075e-07 2.5929338932 -18.697761536 0.39771875739
          11.37213707 -23.921693802 1.1922960539e-06 0.33179631829 -12.321800232 -0.2960576117
          -0.031735673547 -2.9577155113 7.7849136915e-07 8.8247680664 -23.603143692 -0.45509046316
          16.426446915 -24.489274979 0.31497594714 1.9406269789 -19.010507584 1.1315020174e-06
          -0.16708053648 -4.5970640182 0.19142614305 -0.12161764503 -6.829744339 -0.16157948971
          0.65095382929 -15.011092186 7.5425884916e-07 5.7411885262 -20.773094177 0.40249842405
          0 0 0 8.8208312988 -23.645517349 -0.23011665046
          -0.10185720026 -4.6558346748 0.095010429621 13.901425362 -24.188304901 0.2869951427
          1.095762372 -16.759378433 0.05329124257 1.0283468962 -17.566051483 0.27814492583
          0.0022772757802 -1.4250663519 -0.0045535322279 4.376909256 -20.784229279 0.20729996264
          0.021490020677 -9.3798418045 -0.12796118855 11.372616768 -23.908315659 0.25875625014
          8.8202371597 -23.658466339 1.2677897985e-06 3.2028772831 -20.851766586 -0.43963551521
          0.050943359733 -11.821792603 0.41780859232 -0.086248278618 -4.6759409904 9.3653022759e-07
          -0.042875930667 -2.9351570606 -0.040113460273 0.22554023564 -12.14932251 0.27362909913
          1.9504101276 -19.003854752 0.22494737804 3.2025542259 -20.861782074 -0.20805671811
          0.68957346678 -14.949278831 -0.28103837371 6.6933655739 -23.048187256 -0.42537400126
          16.427223206 -24.447019577 0.63081216812 0 0 0
          -0.27102297544 -6.5887055397 0.29513919353 6.6849751472 -23.05654335 -0.21531547606
          13.902896881 -24.146362305 0.57378256321 -0.19968593121 -6.6729969978 0.14372679591
          1.0600373745 -16.499155045 0.16803559661 3.2014348507 -20.864458084 1.2786367733e-06
          -0.024022584781 -1.3997043371 -0.026977928355 0.9445270896 -17.559904099 0.55562400818