<?xml version="1.0"?>
<VTKFile type="UnstructuredGrid" version="0.1" byte_order="LittleEndian" header_type="UInt32" compressor="vtkZLibDataCompressor">
  <UnstructuredGrid>
    <Piece NumberOfPoints="6405" NumberOfCells="4800">
      <PointData>
        <DataArray type="Float32" Name="DISPLACEMENT" NumberOfComponents="3" ComponentName0="X-DISPLACEMENT" ComponentName1="Y-DISPLACEMENT" ComponentName2="Z-DISPLACEMENT" format="ascii" RangeMin="0" RangeMax="237.77117805">
          0 0 0 0 0 0
          1.9882757664 -1.1834410429 -0.92143899202 0 0 0
          1.2868498564 -0.67631614208 -0.70888125896 0 0 0
          1.8151725531 -1.31199193 -0.36639252305 1.1197808981 -0.78423076868 -0.28885942698
          0 0 0 3.5842616558 -2.1912286282 -0.94615370035
          0 0 0 3.5325450897 -2.3409979343 -0.48720785975
          2.5922050476 -1.7817809582 -0.78439939022 0 0 0
          0 0 0 1.8214681149 -1.355225563 5.4105417036e-08
          0.92472946644 -0.42604184151 -0.53165638447 1.1148198843 -0.80562067032 2.5317309138e-08
          2.5351839066 -1.9019435644 -0.40023124218 0.79431265593 -0.52935010195 -0.21481652558
          3.4917583466 -2.3826429844 1.3416062927e-07 1.8707069159 -1.4271137714 -0.6069368124
          0 0 0 2.4998948574 -1.9408637285 7.5985418846e-08
          1.805872798 -1.5420175791 -0.31078329682 0 0 0
          5.0299572945 -3.5126223564 -0.88090968132 0 0 0
          0.7879371047 -0.54698079824 -7.3383019661e-09 0 0 0
          0 0 0 1.8151725531 -1.3119918108 0.36639264226
          3.8219506741 -3.1230065823 -0.75241088867 5.0444774628 -3.6149098873 -0.44878408313
          0.57180082798 -0.25193461776 -0.32695069909 1.1197808981 -0.78423070908 0.28885948658
          3.8313183784 -3.2190060616 -0.38303029537 0.47806784511 -0.3605633378 -0.13267715275
          1.7730611563 -1.5740768909 8.0990716356e-09 3.5325450897 -2.3409976959 0.48720812798
          0 0 0 0 0 0
          1.2062861919 -1.1730005741 -0.4185564816 2.8652129173 -2.7952628136 -0.62349748611
          5.029258728 -3.6518108845 2.4551687261e-07 2.5351839066 -1.9019434452 0.40023142099
          2.8424007893 -2.886623621 -0.31705465913 0.79431265593 -0.52935004234 0.21481651068
          3.8210396767 -3.2505438328 1.5234245154e-07 1.131721735 -1.2927441597 -0.21276003122
          0.47011354566 -0.37472620606 -4.3125382376e-08 0 0 0
          6.3494348526 -5.0075907707 -0.77795362473 0 0 0
          4.9855031967 -4.6602191925 -0.69832009077 1.8058729172 -1.5420174599 0.31078332663
          6.3849773407 -5.0710163116 -0.39422464371 1.9882758856 -1.1834409237 0.92143911123
          0 0 0 0 0 0
          1.1037101746 -1.3234183788 -6.405478814e-08 2.826158762 -2.9131569862 4.7627676025e-08
          0.12033446878 -0.15204559267 -0.10333371907 5.0138750076 -4.7225251198 -0.35211464763
          1.2868499756 -0.67631602287 0.70888131857 1.9371891022 -2.5262770653 -0.48869469762
          0 0 0 5.0444779396 -3.6149096489 0.44878455997
          0.037591326982 -0.27537477016 -0.053132798523 1.8798192739 -2.619104147 -0.24625350535
          3.8313186169 -3.2190058231 0.3830305934 0.47806787491 -0.3605632484 0.13267707825
          3.8434519768 -4.3747506142 -0.61971563101 0.3244279623 -1.0233644247 -0.22140707076
          6.3834118843 -5.0937514305 3.8978896555e-07 3.5842618942 -2.1912283897 0.94615399837
          0 0 0 0 0 0
          3.8431601524 -4.4310870171 -0.31064477563 2.592205286 -1.7817807198 0.78439956903
          5.0167703629 -4.7442507744 2.5806957638e-07 0.24427878857 -1.1468545198 -0.12225409597
          0.92472952604 -0.4260416925 0.53165638447 0.017550855875 -0.29294884205 -8.5425661212e-08
          1.8587338924 -2.6467254162 -6.4921685805e-08 2.8424010277 -2.8866233826 0.31705474854
          1.1317218542 -1.2927440405 0.21275991201 3.8415184021 -4.4485812187 1.1215411888e-07
          1.8707070351 -1.427113533 0.60693687201 0.22058589756 -1.1800386906 -1.3927075315e-07
          2.7662439346 -4.1607561111 -0.54634350538 6.3849773407 -5.0710163116 0.39422544837
          5.0299577713 -3.512622118 0.88091021776 0 0 0
          7.531683445 -6.5946731567 -0.69214349985 0 0 0
          0 0 0 0.74264115095 -2.3321452141 -0.35065090656
          2.7154507637 -4.1962938309 -0.27656173706 7.5665583611 -6.62936306 -0.34902125597
          6.0676751137 -6.2825117111 -0.64981168509 5.0138750076 -4.7225246429 0.35211518407
          -0.30442461371 -0.22586041689 0.087533093989 0 0 0
          3.8219509125 -3.1230061054 0.7524111867 0.57180088758 -0.25193446875 0.32695063949
          0.67553675175 -2.423186779 -0.18428209424 0.037591397762 -0.27537468076 0.053132638335
          -0.34296500683 -0.36307919025 0.024594554678 1.8798193932 -2.619104147 0.24625338614
          6.0981888771 -6.3185744286 -0.3255456686 3.8431603909 -4.4310865402 0.31064501405
          2.6908867359 -4.1983656883 -3.4109419289e-08 7.5711688995 -6.6429514885 5.6760609368e-07
          -0.48536607623 -0.9188760519 0.053518667817 0.24427890778 -1.1468544006 0.1222538203
          0 0 0 4.7861614227 -6.0327739716 -0.61041080952
          1.2062863111 -1.1730002165 0.41855639219 2.8652131557 -2.7952623367 0.62349760532
          0.66488271952 -2.4474008083 -1.6914334822e-07 6.1061720848 -6.3320856094 3.9468412183e-07
          -0.39688307047 -0.4000121057 1.2190561449e-07 -0.53721058369 -1.0798615217 -0.01402666606
          4.7974338531 -6.0633325577 -0.30551746488 6.3494348526 -5.0075902939 0.77795445919
          0 0 0 1.4179954529 -3.9163172245 -0.50428956747
          4.9855031967 -4.6602187157 0.69832068682 -0.55737382174 -1.1119612455 -6.6847050562e-08
          1.3569586277 -3.9594573975 -0.23974691331 4.7996177673 -6.075044632 2.1054947297e-07
          0.12033452839 -0.15204542875 0.10333358496 2.7154510021 -4.196293354 0.27656167746
          3.5729575157 -5.8729028702 -0.58585005999 7.5665583611 -6.62936306 0.34902241826
          -0.66926133633 -2.186393261 -0.0035613006912 1.9371893406 -2.5262765884 0.48869463801
          0 0 0 0.67553687096 -2.4231865406 0.18428175151
          3.5731089115 -5.875500679 -0.28958055377 -0.34296533465 -0.36307922006 -0.024594895542
          -0.66962695122 -2.3412225246 -0.09038425982 6.0981893539 -6.3185739517 0.32554647326
          3.8434522152 -4.3747501373 0.61971586943 0.32442808151 -1.0233640671 0.22140681744
          8.6033639908 -8.199889183 -0.6340970993 0 0 0
          1.3438867331 -3.9859685898 -1.9400306428e-07 7.0791282654 -7.9101262093 -0.60931503773
          8.6313323975 -8.2211341858 -0.31907036901 0 0 0
          0.11179259419 -0.62826353312 -0.12256508321 7.1057810783 -7.9334330559 -0.30452564359
          3.5871224403 -5.8761348724 1.1368610942e-08 0.056196525693 -0.62492346764 -0.021906418726
          -0.53721392155 -1.0798612833 0.014025770128 -0.55108690262 -2.309845686 3.6139674194e-05
          4.7974338531 -6.0633320808 0.30551788211 5.6841621399 -7.673183918 -0.58627533913
          0.17472587526 -1.3835251331 -0.24059027433 8.6387634277 -8.2299718857 7.7452875757e-07
          0 0 0 0.11120647192 -1.3829102516 -0.079991042614
          5.7082157135 -7.693459034 -0.29455178976 7.1138091087 -7.9428458214 5.5829485746e-07
          0.058545771986 -0.65969401598 6.8721942625e-07 2.7662444115 -4.1607556343 0.54634344578
          2.4539735317 -5.767563343 -0.64824235439 7.5316839218 -6.5946722031 0.69214463234
          0 0 0 0.82370483875 -3.6792933941 -0.87751239538
          1.3569588661 -3.9594569206 0.23974655569 0.74264144897 -2.3321447372 0.35065057874
          6.0676755905 -6.2825112343 0.64981251955 -0.30442655087 -0.22585971653 -0.087533593178
          1.764606595 -4.2815499306 -0.22371269763 2.3390278816 -5.6861128807 -0.29375836253
          3.5731091499 -5.8755002022 0.28958061337 -0.66971600056 -2.3412601948 0.090366318822
          5.7163453102 -7.7028217316 3.3794393062e-07 0.11270601302 -1.4076087475 2.6999077818e-06
          4.4021315575 -7.4821777344 -0.57940137386 0.5228844285 -2.3226213455 -0.41285800934
          -0.4853720367 -0.91887480021 -0.053526367992 8.6313323975 -8.2211341858 0.31907191873
          4.7861618996 -6.0327734947 0.61041122675 0 0 0
          2.1846487522 -5.5945162773 -1.5739188086e-07 1.6317635775 -4.4948835373 4.0425243242e-07
          4.4205040932 -7.5094919205 -0.29771801829 7.1057815552 -7.9334330559 0.30452677608
          0.47357779741 -2.3016355038 -0.1574922204 0.056194741279 -0.62492328882 0.021907124668
          1.4179960489 -3.9163167477 0.50428932905 4.4213924408 -7.5335659981 1.1800141664e-07
          5.7082161903 -7.6934585571 0.29455247521 0.11119696498 -1.3829193115 0.079992227256
          0.45521971583 -2.3527126312 -1.4023305539e-06 9.6108512878 -9.796163559 -0.60391134024
          0 0 0 9.6308317184 -9.8176832199 -0.30267235637
          3.5729579926 -5.8729023933 0.5858501792 8.0370588303 -9.5164813995 -0.57656764984
          -0.66925275326 -2.186394453 0.0035557728261 2.2534878254 -6.0032606125 -0.5801910758
          0.19249479473 -0.71657222509 -0.14504128695 1.7646136284 -4.2815532684 0.22371040285
          2.3390285969 -5.6861128807 0.29375809431 0 0 0
          8.0588502884 -9.5401210785 -0.28795713186 2.3224215508 -5.87631464 -0.41570642591
          0.14300701022 -0.7220595479 -0.060257982463 3.3082420826 -7.2594733238 -0.57922959328
          0.89016407728 -3.6698577404 -0.35688245296 8.6033649445 -8.199889183 0.63409864902
          0 0 0 7.0791287422 -7.9101252556 0.60931617022
          9.6387376785 -9.8258638382 1.0023875348e-06 0.74887818098 -3.8384001255 -0.17732973397
          3.3471734524 -7.3369665146 -0.31295877695 0.11179015785 -0.62826490402 0.12256442755
          6.5517206192 -9.2789182663 -0.54823809862 0.37859082222 -1.4937217236 -0.22494755685
          0 0 0 4.42050457 -7.5094914436 0.29771825671
          0.47358265519 -2.301636219 0.15749944746 8.0663118362 -9.5488443375 7.406521263e-07
          1.6853806973 -5.2352046967 -5.5926011555e-07 6.5783448219 -9.3038072586 -0.27516436577
          0.32958000898 -1.510084033 -0.11676998436 0.13837479055 -0.72468549013 7.9695382738e-07
          5.6841626167 -7.6731829643 0.58627605438 0.17471970618 -1.3835295439 0.24058903754
          3.3402037621 -7.3966264725 -1.0786047255e-07 0.80601853132 -3.9094276428 5.1495669595e-07
          2.4539744854 -5.7675628662 0.64824217558 6.585003376 -9.3145418167 4.8026441846e-07
          0.31426000595 -1.5148124695 1.3071827425e-06 0.82369124889 -3.6792948246 0.8775241375
          9.6308317184 -9.8176822662 0.30267438293 5.2087073326 -9.0820159912 -0.52351492643
          0 0 0 0.53734260798 -2.472994566 -0.28804156184
          5.2392888069 -9.1112918854 -0.26417791843 8.0588502884 -9.5401201248 0.28795862198
          0.14300554991 -0.72206127644 0.060259237885 2.3224234581 -5.8763155937 0.41570585966
          0.49400898814 -2.5305855274 -0.14953707159 4.4021320343 -7.4821767807 0.57940161228
          2.29814291 -7.0234251022 -0.3843870461 3.3471739292 -7.3369660378 0.31295856833
          0.52287322283 -2.3226327896 0.41285395622 0.74887013435 -3.8383960724 0.17733207345
          1.4238982201 -5.5164284706 -0.38158324361 2.5250844955 -7.2443094254 -0.24722281098
          5.2425112724 -9.1235322952 2.1882419787e-07 6.5783448219 -9.3038063049 0.27516531944
          0.32957980037 -1.5100858212 0.11677226424 1.4897471666 -5.6350336075 -0.23640286922
          0.48308199644 -2.5386352539 1.6896883608e-06 10.599129677 -11.403202057 -0.59266638756
          0 0 0 0.17353895307 -0.71728491783 -0.12051767111
          2.8573806286 -7.5208954811 -4.5792407377e-07 4.0736694336 -8.9173212051 -0.47000077367
          8.9602413177 -11.121067047 -0.55245822668 9.6108512878 -9.7961626053 0.60391336679
          0 0 0 0 0 0
          1.5997675657 -5.5860147476 -2.7741020858e-07 0.76133286953 -3.7987995148 -0.30657497048
          10.612231255 -11.43275547 -0.2957932651 4.1167063713 -8.9537315369 -0.23663768172
          8.9759912491 -11.152616501 -0.27487438917 8.0370597839 -9.5164804459 0.57656919956
          0.13505643606 -0.74016469717 -0.051409244537 2.2534883022 -6.0032596588 0.58019018173
          0.19249358773 -0.71657425165 0.14504191279 0.76977437735 -3.8662686348 -0.14532765746
          5.2392892838 -9.1112918854 0.26417833567 0.49400678277 -2.5305871964 0.14953868091
          7.3758301735 -10.889410973 -0.5064484477 3.3082427979 -7.2594723701 0.57922929525
          0.89016073942 -3.6698598862 0.35688325763 0 0 0
          0.3165165782 -1.5582758188 -0.17041759193 10.619109154 -11.44269371 1.2452245528e-06
          0.13211101294 -0.74530851841 6.9789598456e-07 4.1312308311 -8.9571475983 -6.2180326665e-08
          7.3996272087 -10.920660973 -0.25231420994 6.5517215729 -9.2789173126 0.5482391119
          8.9812994003 -11.162751198 9.3634622544e-07 0.37858870625 -1.4937258959 0.22494849563
          0.75977838039 -3.8884596825 5.5649883279e-07 0.28268393874 -1.5993673801 -0.087879672647
          2.525084734 -7.2443089485 0.24722190201 1.4897457361 -5.635035038 0.23640263081
          2.1239368916 -7.1215968132 -0.38671547174 7.4054656029 -10.930356026 6.2867007955e-07
          0.27240982652 -1.609746933 1.0442379335e-06 2.1029160023 -7.1978621483 -0.16699674726
          5.9407405853 -10.724596024 -0.46505126357 0 0 0
          0.44751468301 -2.5941410065 -0.2021868825 10.612232208 -11.432754517 0.2957957387
          0.13505633175 -0.74016553164 0.051410425454 4.1167068481 -8.9537305832 0.23663754761
          5.971531868 -10.750967979 -0.22993759811 5.2087078094 -9.0820150375 0.52351534367
          8.9759912491 -11.152615547 0.27487626672 2.8747563362 -8.7841176987 -0.39982247353
          1.0967116356 -5.3612289429 -0.27781492472 0.53734201193 -2.4729964733 0.28804466128
          0.42982959747 -2.6489684582 -0.10258377343 0.76977431774 -3.8662688732 0.14532913268
          2.9396800995 -8.8226079941 -0.16950185597 1.0952010155 -5.4361763 -0.13743418455
          2.0185668468 -7.1928739548 -4.0501217313e-07 2.2981436253 -7.0234241486 0.38438606262
          7.3996276855 -10.920660019 0.25231546164 1.4238950014 -5.5164270401 0.38158413768
          5.9768958092 -10.758797646 3.2741783684e-07 0.28268349171 -1.599368453 0.08788164705
          0.42129668593 -2.664137125 9.9698979739e-07 3.0110919476 -8.8140201569 -3.7915219764e-07
          1.083547473 -5.4714317322 2.4281902711e-07 0.59286612272 -3.8749623299 -0.20790576935
          4.7082428932 -10.627796173 -0.43119958043 10.59913063 -11.403201103 0.59266889095
          0 0 0 2.1029157639 -7.1978621483 0.16699582338
          0.17353889346 -0.71728622913 0.12051842362 0.58437210321 -3.9362735748 -0.10632778704
          4.0736699104 -8.9173202515 0.47000062466 8.9602422714 -11.121066093 0.55246013403
          4.737411499 -10.6459589 -0.21280045807 11.591930389 -13.067376137 -0.59050691128
          0 0 0 0.7613312602 -3.7987995148 0.30657717586
          11.599432945 -13.105710983 -0.29321053624 0.10850590467 -0.71463668346 -0.073656998575
          9.8730916977 -12.77858448 -0.53429347277 5.9715323448 -10.750967026 0.22993825376
          0 0 0 0.42982959747 -2.6489694118 0.10258603841
          9.8821306229 -12.817897797 -0.26622322202 0.085681781173 -0.74727720022 -0.031031847
          2.9396808147 -8.8226079941 0.16950114071 1.095199585 -5.4361758232 0.13743470609
          7.3758311272 -10.889409065 0.5064496994 0.57929074764 -3.9552052021 8.3740400214e-07
          4.752802372 -10.65368557 3.3386346132e-08 0.316516608 -1.5582773685 0.17041920125
          2.6178750992 -9.119146347 -0.47476783395 0.20350822806 -1.5915244818 -0.099068909883
          8.1576919556 -12.518373489 -0.47496187687 1.450732708 -7.0546069145 -0.2690114677
          11.60368824 -13.117324829 1.5063277488e-06 0 0 0
          2.6503205299 -9.0997714996 -0.21731051803 9.8852710724 -12.829479218 1.1468856655e-06
          0.083784684539 -0.75469207764 5.0449540367e-07 8.1726856232 -12.55757618 -0.23296870291
          0.18520775437 -1.6394519806 -0.051202144474 1.4756499529 -7.1218967438 -0.13990916312
          2.1239356995 -7.1215968132 0.38671496511 2.6471302509 -9.0966854095 -4.7722249974e-07
          0.77250266075 -5.3743982315 -0.20059862733 0.58437174559 -3.9362735748 0.10632942617
          3.5757608414 -10.529726982 -0.44203823805 8.1764593124 -12.56616497 7.8434288753e-07
          5.9407410622 -10.72459507 0.46505191922 4.737411499 -10.6459589 0.21280051768
          1.4910767078 -7.1380987167 -2.4041321467e-07 0.17849206924 -1.6532530785 8.5496344582e-07
          0.44751441479 -2.5941421986 0.20218844712 11.599432945 -13.10571003 0.29321354628
          6.5586118698 -12.387137413 -0.39921760559 0.77881807089 -5.4340429306 -0.099724948406
          0.28939047456 -2.6589417458 -0.11642751843 3.5875768661 -10.547878265 -0.2055336535
          2.8747572899 -8.7841176987 0.39982199669 1.0967099667 -5.361228466 0.27781549096
          0 0 0 0.27658244967 -2.7159984112 -0.059897892177
          9.8821306229 -12.817897797 0.2662255168 0.085681714118 -0.74727755785 0.03103277646
          6.5799517632 -12.412820816 -0.20555695891 0.78034967184 -5.4543495178 4.2703817371e-07
          3.5901248455 -10.556645393 -2.181607357e-07 2.6503198147 -9.099770546 0.21730938554
          6.5836200714 -12.422287941 4.2416607471e-07 0.27151700854 -2.7329061031 9.9920941921e-07
          8.1726856232 -12.557575226 0.23297028244 0.18520779908 -1.6394524574 0.051203776151
          1.4756493568 -7.1218967438 0.13990879059 0.59286564589 -3.8749628067 0.20790727437
          4.7082433701 -10.627794266 0.43119961023 5.2913799286 -12.310077667 -0.40447562933
          11.591930389 -13.067375183 0.59050995111 0 0 0
          0.37400451303 -3.9414710999 -0.12580807507 0.10850616544 -0.71463727951 0.073657773435
          9.8730926514 -12.778582573 0.53429579735 0.77881783247 -5.4340429306 0.099725887179
          3.5875775814 -10.547877312 0.20553314686 5.3053407669 -12.327670097 -0.2040527612
          1.8275136948 -8.8445262909 -0.20589403808 0.36792722344 -3.9991052151 -0.063546702266
          0.27658241987 -2.715998888 0.059899751097 6.5799517632 -12.412819862 0.20555780828
          1.8352725506 -8.9031076431 -0.13120159507 2.7948377132 -10.51551342 -0.33716124296
          0.98827958107 -7.0201535225 -0.1831638217 12.590662956 -14.835277557 -0.58722472191
          0 0 0 10.776851654 -14.545978546 -0.52811586857
          2.6178743839 -9.1191444397 0.4747659266 0.20350848138 -1.5915250778 0.099070295691
          8.1576929092 -12.518371582 0.47496345639 0.99628329277 -7.0747170448 -0.090492211282
          2.8486192226 -10.58160305 -0.19208560884 1.4507313967 -7.0546064377 0.26901131868
          12.594215393 -14.875842094 -0.29160663486 0 0 0
          0.36482256651 -4.0174036026 9.0109097073e-07 5.3137068748 -12.341983795 1.0126927918e-07
          0.032076437026 -0.70750099421 -0.017834348604 10.779530525 -14.587103844 -0.26304858923
          0.026207806543 -0.74409723282 -0.0074160732329 1.8340916634 -8.8955163956 -5.0886961844e-07
          8.9828472137 -14.269729614 -0.46082314849 0.9968675375 -7.0933060646 1.1545959921e-07
          2.8869276047 -10.606363297 -4.373277136e-07 12.595485687 -14.888027191 1.7964696326e-06
          0 0 0 0.067494355142 -1.5956790447 -0.024911573157
          8.9821529388 -14.3113451 -0.22885176539 10.781243324 -14.598642349 1.3819269498e-06
          0.77250176668 -5.3743982315 0.20059968531 3.575761795 -10.529726028 0.44203749299
          0.025471191853 -0.75269895792 3.869695604e-07 0.0605500862 -1.6476148367 -0.012893865816
          6.5586123466 -12.387135506 0.39921849966 0.28939059377 -2.6589422226 0.11642925441
          0.46509853005 -5.4201874733 -0.12769323587 4.2443871498 -12.198033333 -0.39946839213
          0.36792719364 -3.9991052151 0.063548460603 5.3053412437 -12.327669144 0.20405294001
          0.46311679482 -5.4723687172 -0.064045548439 4.2631545067 -12.230205536 -0.20082975924
          1.8352720737 -8.9031066895 0.13120058179 8.9843502045 -14.319895744 9.5238152653e-07
          0.058042287827 -1.6633070707 7.1200679486e-07 7.0236682892 -14.010741234 -0.3726888895
          0.99628281593 -7.074716568 0.090492457151 2.8486180305 -10.581601143 0.19208446145
          12.594216347 -14.875841141 0.29161024094 0 0 0
          0.10395723581 -2.6819577217 -0.034328918904 7.0283312798 -14.044120789 -0.19781595469
          10.779530525 -14.58710289 0.26305136085 0.095202796161 -2.7411179543 -0.017679929733
          0.46137905121 -5.4901957512 7.1266572377e-07 4.2708654404 -12.243362427 -2.0734775319e-07
          0.026207823306 -0.74409735203 0.0074167945422 8.9821538925 -14.311344147 0.22885368764
          7.0353507996 -14.056628227 5.355433359e-07 0.092142961919 -2.759562254 9.123818927e-07
          5.2913804054 -12.31007576 0.40447574854 2.2077283859 -10.481643677 -0.22722189128
          0.060550138354 -1.6476149559 0.012895246036 0.37400433421 -3.9414715767 0.1258097142
          1.227710247 -8.7299365997 -0.16454726458 2.2077643871 -10.54689312 -0.12950597703
          1.8275127411 -8.8445262909 0.20589338243 1.2372009754 -8.7788162231 -0.081028416753
          0.46311658621 -5.4723687172 0.064046941698 4.2631545067 -12.230204582 0.2008292526
          2.7948360443 -10.515510559 0.33715960383 0.9882786274 -7.0201535225 0.18316416442
          0.13449399173 -3.9831638336 -0.047077536583 5.8495135307 -13.925516129 -0.42886921763
          12.59066391 -14.83527565 0.58722835779 0 0 0
          10.776852608 -14.545977592 0.52811866999 0.12376425415 -4.0406794548 -0.024308759719
          2.2242290974 -10.564889908 -7.9399660535e-07 0.56548124552 -7.0374407768 -0.12422166765
          3.092795372 -12.05593586 -0.32701739669 5.8609242439 -13.949088097 -0.20374049246
          0.032076731324 -0.70750111341 0.017835019156 1.2409445047 -8.7987794876 -2.2425969348e-07
          7.0283317566 -14.044119835 0.19781704247 0.095202855766 -2.7411179543 0.017681717873
          3.126727581 -12.103031158 -0.17043414712 0.56804352999 -7.0820894241 -0.061774689704
          8.9828481674 -14.269727707 0.46082511544 0.12036921829 -4.0595903397 9.8625673672e-07
          5.8678884506 -13.96167469 8.6303245439e-08 0.067494705319 -1.5956792831 0.02491282858
          3.1598534584 -12.122326851 -7.2216988656e-07 13.573404312 -16.716867447 -0.57951259613
          0 0 0 0.56830197573 -7.0987524986 4.6333818204e-07
          13.575399399 -16.752439499 -0.28879135847 0 0 0
          2.2077641487 -10.546892166 0.12950445712 11.675076485 -16.437923431 -0.53103810549
          0.46509808302 -5.4201879501 0.12769456208 4.2443876266 -12.198031425 0.39946767688
          -0.052181489766 -0.69475781918 0.04180137068 1.2372006178 -8.7788162231 0.081028059125
          11.674687386 -16.472799301 -0.26436543465 -0.039988841861 -0.73271244764 0.017781866714
          7.0236692429 -14.010739326 0.37269005179 13.574811935 -16.763700485 2.127799462e-06
          0.12376422435 -4.0406794548 0.024310683832 9.7799882889 -16.192745209 -0.48273196816
          -0.082698941231 -1.5722024441 0.053971331567 5.8609242439 -13.949087143 0.20374065638
          0 0 0 4.7686724663 -13.846326828 -0.38663694263
          0.15038582683 -5.477809906 -0.062223728746 0.10395745188 -2.6819579601 0.034330543131
          -0.07710968703 -1.6281430721 0.027947612107 9.7720975876 -16.224254608 -0.24062336981
          11.6751194 -16.48358345 1.6527243361e-06 3.1267266273 -12.103030205 0.17043276131
          0.1404940933 -5.5273389816 -0.031928569078 4.7873039246 -13.878189087 -0.19102406502
          0.56804329157 -7.0820894241 0.061775624752 -0.039298683405 -0.74158602953 3.1194673511e-07
          1.4443843365 -10.449255943 -0.15809772909 9.7726430893 -16.235992432 1.1631922234e-06
          2.2077276707 -10.481641769 0.22722090781 -0.075131036341 -1.6448197365 6.1877796043e-07
          0.13771262765 -5.5448403358 9.5144889656e-07 1.4547429085 -10.494918823 -0.075968720019
          4.7938990593 -13.887302399 -3.3954455603e-07 1.2277094126 -8.7299365997 0.16454705596
          13.575399399 -16.752439499 0.2887956202 7.8356261253 -15.958874702 -0.45955231786
          0.67176485062 -8.7279291153 -0.117253609 0 0 0
          -0.099402792752 -2.6616170406 0.052273247391 2.4568593502 -12.282166481 -0.35400667787
          -0.10523585975 -2.7272839546 0.026194879785 7.8234095573 -15.989029884 -0.2191503793
          11.674688339 -16.472797394 0.26436877251 0.67681014538 -8.765666008 -0.058159511536
          2.5134015083 -12.324645042 -0.10605885834 -0.03998881951 -0.73271244764 -0.017781274393
          0.13449399173 -3.983164072 0.047079313546 5.8495135307 -13.925515175 0.42886933684
          1.4544132948 -10.511668205 -5.128267162e-07 0.56548064947 -7.0374407768 0.12422260642
          3.0927941799 -12.055933952 0.32701617479 7.8275690079 -15.999811172 6.6489451456e-07
          9.7720985413 -16.224254608 0.2406257093 0.67767399549 -8.7812671661 2.1209694978e-07
          -0.077109627426 -1.6281431913 -0.027946399525 -0.10618758202 -2.74791646 8.7402878535e-07
          0.14049395919 -5.5273389816 0.031930431724 4.7873039246 -13.878189087 0.19102342427
          2.4952597618 -12.332221985 -1.1488773453e-06 3.6139411926 -13.828057289 -0.33696815372
          0.14880120754 -7.1042399406 -0.074882574379 3.6287600994 -13.876683235 -0.15548139811
          0.14298276603 -7.1443767548 -0.038643147796 13.573405266 -16.71686554 0.57951694727
          0 0 0 1.4547425508 -10.494918823 0.075967796147
          -0.12164922804 -3.9926683903 0.032610528171 6.7107563019 -15.788184166 -0.40265280008
          -0.13831822574 -4.0564413071 0.015130152926 11.675077438 -16.437921524 0.53104144335
          -0.052181195468 -0.69475775957 -0.04180078581 6.7369318008 -15.81483078 -0.18765251338
          7.8234100342 -15.989028931 0.21915173531 0.67680984735 -8.765666008 0.058159939945
          -0.10523581505 -2.7272839546 -0.026193175465 2.5134012699 -12.324644089 0.10605680197
          3.6340711117 -13.884986877 -7.1392969403e-07 0.14151965082 -7.1603536606 8.4372840092e-07
          9.7799892426 -16.192743301 0.48273435235 -0.082698583603 -1.5722024441 -0.053970199078
          4.7686724663 -13.846325874 0.38663634658 -0.1419723928 -4.0780920982 1.0542819382e-06
          0.15038557351 -5.477809906 0.062225461006 6.7298069 -15.817914009 -5.8867946962e-08
          14.531412125 -18.684368134 -0.56902962923 0 0 0
          1.4443836212 -10.449255943 0.15809701383 3.628759861 -13.876683235 0.155480057
          0 0 0 12.55774498 -18.413217545 -0.53136599064
          0.7834559083 -10.447365761 -0.10698197782 0.14298252761 -7.1443767548 0.038644794375
          -0.1385511905 -0.68300384283 0.10087466985 1.646214962 -12.204541206 -0.11061120778
          14.533610344 -18.712583542 -0.28422814608 7.835627079 -15.958872795 0.45955374837
          12.558154106 -18.440458298 -0.26564854383 -0.10629906505 -0.71657681465 0.043065309525
          0.67176413536 -8.727930069 0.11725407839 0.78884291649 -10.483113289 -0.053322464228
          -0.099402524531 -2.6616168022 -0.052271667868 5.2528362274 -15.613431931 -0.34054860473
          -0.13831827044 -4.0564413071 -0.015128098428 2.4568593502 -12.282165527 0.35400500894
          -0.17643785477 -5.5419840813 0.00054163380992 6.7369318008 -15.814829826 0.18765239418
          1.6447948217 -12.258242607 -0.076562695205 -0.19751130044 -5.5943541527 -0.0024396867957
          5.2718853951 -15.639007568 -0.17302706838 10.596092224 -18.161886215 -0.49793073535
          14.532512665 -18.721763611 2.5073527468e-06 -0.24323512614 -1.5215176344 0.141514346
          0 0 0 10.590395927 -18.18737793 -0.24860024452
          -0.21971790493 -1.5792233944 0.072838999331 12.557883263 -18.449554443 1.966704076e-06
          2.6467602253 -13.918571472 -0.16510476172 0.79147362709 -10.497503281 -4.5990070419e-08
          1.649445653 -12.260771751 -6.9753707521e-07 0.14027367532 -8.7904214859 -0.080553352833
          -0.10463885218 -0.72470343113 2.6405916742e-07 2.6423242092 -14.000751495 -0.10019829869
          5.2736029625 -15.644615173 -3.6262380831e-07 0.13991007209 -8.8243961334 -0.041538137943
          -0.20204374194 -5.6144580841 1.1634937209e-06 3.6139407158 -13.828056335 0.33696696162
          10.589253426 -18.19616127 1.4094013068e-06 0.14880073071 -7.1042404175 0.074884109199
          -0.2120744139 -1.5948914289 5.4020006246e-07 8.6162996292 -17.924160004 -0.46637323499
          14.533611298 -18.712581635 0.28423315287 2.6365549564 -14.007508278 -8.2852000105e-07
          -0.31901207566 -2.5908277035 0.15352518857 -0.12164914608 -3.9926683903 -0.032608635724
          0.1405505836 -8.8393955231 6.7031584194e-07 6.7107563019 -15.788183212 0.40265268087
          0 0 0 8.6098508835 -17.946685791 -0.23345831037
          -0.31701332331 -2.6693272591 0.079073339701 12.55815506 -18.44045639 0.26565247774
          0.78884255886 -10.483113289 0.053322389722 1.6447944641 -12.258242607 0.076561331749
          -0.1062990427 -0.71657675505 -0.04306480661 5.2718849182 -15.639006615 0.17302635312
          -0.19751144946 -5.5943541527 0.0024419471156 10.590396881 -18.18737793 0.24860309064
          8.6077795029 -17.955575943 8.4383862031e-07 4.0648899078 -15.479437828 -0.29312574863
          -0.27937045693 -7.2206120491 -0.033698979765 -0.31320878863 -2.6921081543 8.0475939512e-07
          -0.21971786022 -1.5792232752 -0.072837941349 -0.29372793436 -7.2614336014 -0.018980700523
          2.6423239708 -14.000750542 0.1001964286 4.0606832504 -15.524037361 -0.14904485643
          0.13990974426 -8.8243951797 0.041539449245 7.1755576134 -17.64499855 -0.23127567768
          14.531413078 -18.684366226 0.56903469563 0 0 0
          -0.40130829811 -3.9590947628 0.12632246315 7.1960687637 -17.603839874 -0.14520941675
          12.557745934 -18.41321373 0.53136992455 -0.42502585053 -4.0416045189 0.060274869204