<?xml version="1.0"?>
<VTKFile type="UnstructuredGrid" version="0.1" byte_order="LittleEndian" header_type="UInt32" compressor="vtkZLibDataCompressor">
  <UnstructuredGrid>
    <Piece NumberOfPoints="6405" NumberOfCells="4800">
      <PointData>
        <DataArray type="Float32" Name="DISPLACEMENT" NumberOfComponents="3" ComponentName0="X-DISPLACEMENT" ComponentName1="Y-DISPLACEMENT" ComponentName2="Z-DISPLACEMENT" format="ascii" RangeMin="0" RangeMax="714.91465384">
          0 0 0 0 0 0
          4.2737498283 -2.5105192661 -2.0113875866 0 0 0
          2.9958405495 -1.4201726913 -1.6874593496 0 0 0
          3.8592259884 -2.7141788006 -0.80789530277 2.5890438557 -1.5860569477 -0.68926244974
          0 0 0 7.7342996597 -4.1907615662 -2.1454553604
          0 0 0 7.5762758255 -4.4528231621 -1.112786293
          6.0452337265 -3.2750711441 -1.9028223753 0 0 0
          0 0 0 3.8630037308 -2.7971377373 5.3542663636e-08
          2.3982703686 -0.90812909603 -1.4505133629 2.575455904 -1.6255983114 1.6123379964e-08
          5.8861017227 -3.4764277935 -0.97160238028 2.0543334484 -1.0588493347 -0.59072053432
          7.4816999435 -4.5296626091 1.9184479783e-08 4.7675523758 -2.4971263409 -1.6336200237
          0 0 0 5.798930645 -3.549952507 -4.1259450967e-08
          4.6231741905 -2.6861948967 -0.84008127451 0 0 0
          11.060425758 -6.2450385094 -2.123323679 0 0 0
          2.042276144 -1.0920909643 -4.7714019402e-09 0 0 0
          0 0 0 3.8592259884 -2.7141788006 0.80789536238
          9.0159711838 -5.3032002449 -1.8713723421 11.047678947 -6.4537000656 -1.0845168829
          1.8950144053 -0.609793365 -1.1831537485 2.5890438557 -1.5860569477 0.68926244974
          9.0087337494 -5.5010104179 -0.95398855209 1.6094245911 -0.76396745443 -0.48581710458
          4.5444970131 -2.7456068993 -8.1648515504e-08 7.5762753487 -4.4528226852 1.112786293
          0 0 0 0 0 0
          3.7514939308 -1.9722510576 -1.3526864052 7.255874157 -4.5019617081 -1.6210033894
          11.01563549 -6.5329966545 -8.6455216319e-08 5.8861017227 -3.4764275551 0.97160226107
          7.2417874336 -4.6975240707 -0.82710599899 2.0543334484 -1.0588493347 0.59072053432
          8.979174614 -5.5708060265 -1.6511297929e-07 3.6271944046 -2.1663575172 -0.6953138113
          1.5995988846 -0.79373568296 -1.8939420698e-08 0 0 0
          14.375663757 -8.595290184 -2.0313830376 0 0 0
          11.96134758 -7.6684799194 -1.7900493145 4.6231737137 -2.6861946583 0.8400810957
          14.411525726 -8.7825517654 -1.0265548229 4.2737493515 -2.5105190277 2.0113875866
          0 0 0 0 0 0
          3.5621404648 -2.223490715 -1.0992542343e-07 7.2144584656 -4.7621665001 -2.2217878382e-07
          1.437983036 -0.41841229796 -0.9085534811 11.99840641 -7.854598999 -0.90318226814
          2.9958403111 -1.4201725721 1.6874593496 5.7194499969 -3.8739218712 -1.3468996286
          0 0 0 11.047677994 -6.4537000656 1.0845166445
          1.2142742872 -0.57575827837 -0.37296804786 5.7031407356 -4.0757570267 -0.68887972832
          9.0087327957 -5.5010104179 0.95398819447 1.6094244719 -0.76396745443 0.48581704497
          9.7648248672 -6.8657865524 -1.5471775532 2.832706213 -1.6224935055 -1.0512827635
          14.410338402 -8.8478631973 -2.7616084708e-07 7.7342991829 -4.1907615662 2.1454553604
          0 0 0 0 0 0
          9.7952642441 -7.0551123619 -0.78138494492 6.0452332497 -3.2750709057 1.9028222561
          12.000255585 -7.9192605019 -3.6678599713e-07 2.7303745747 -1.8218456507 -0.53997153044
          2.3982701302 -0.90812903643 1.4505132437 1.2055412531 -0.60548597574 -2.7682052206e-08
          5.6782827377 -4.138794899 -2.6301464118e-07 7.2417874336 -4.6975240707 0.82710552216
          3.6271941662 -2.1663575172 0.69531357288 9.7951107025 -7.1189279556 -4.3411699835e-07
          4.767551899 -2.4971261024 1.6336197853 2.679153204 -1.8785848618 -1.2872382626e-07
          7.7556304932 -6.2144236565 -1.2912291288 14.411525726 -8.7825508118 1.0265542269
          11.060424805 -6.2450380325 2.1233232021 0 0 0
          17.640289307 -11.301386833 -1.9577351809 0 0 0
          0 0 0 4.3195757866 -3.4283971786 -1.0586274862
          7.7774524689 -6.4095172882 -0.6526569128 17.681476593 -11.477797508 -0.98128575087
          14.848428726 -10.391550064 -1.7218921185 11.998405457 -7.8545985222 0.90318149328
          0.98953419924 -0.29695811868 -0.62928974628 0 0 0
          9.0159702301 -5.3032002449 1.8713719845 1.8950141668 -0.6097933054 1.1831536293
          4.300432682 -3.6357045174 -0.54076755047 1.214274168 -0.57575827837 0.37296798825
          0.83109682798 -0.45178887248 -0.25680112839 5.7031402588 -4.0757565498 0.68887919188
          14.889214516 -10.570258141 -0.86312490702 9.7952642441 -7.0551123619 0.78138405085
          7.7758293152 -6.4735074043 -4.8295203214e-07 17.691326141 -11.537734985 -5.6194278386e-07
          1.9522571564 -1.4028285742 -0.74267488718 2.7303743362 -1.8218456507 0.53997123241
          0 0 0 12.23917675 -9.6036338806 -1.4860081673
          3.751493454 -1.9722510576 1.3526861668 7.2558732033 -4.5019612312 1.6210027933
          4.2793431282 -3.6990134716 -2.9086871223e-07 14.900105476 -10.630678177 -6.5826185391e-07
          0.82582050562 -0.47935211658 -3.1573009096e-08 1.8712759018 -1.6024047136 -0.38002973795
          12.27437973 -9.7854156494 -0.74478268623 14.375662804 -8.5952892303 2.0313823223
          0 0 0 5.8759965897 -5.7259378433 -1.0229719877
          11.961346626 -7.6684794426 1.79004848 1.832701087 -1.6587364674 -1.3968011103e-07
          5.8879451752 -5.9252753258 -0.51683938503 12.28347683 -9.8467817307 -7.2986694022e-07
          1.4379827976 -0.41841226816 0.90855330229 7.777451992 -6.4095172882 0.65265589952
          9.7880659103 -8.9527368546 -1.2421988249 17.681476593 -11.477797508 0.98128461838
          2.9714741707 -3.1442451477 -0.76173353195 5.7194490433 -3.8739216328 1.3468990326
          0 0 0 4.3004322052 -3.6357045174 0.54076695442
          9.8154468536 -9.1388130188 -0.6228864789 0.83109670877 -0.45178887248 0.25680103898
          2.949557066 -3.3503918648 -0.38782566786 14.889213562 -10.570258141 0.86312353611
          9.7648239136 -6.8657865524 1.5471765995 2.8327054977 -1.6224935055 1.0512825251
          20.835002899 -14.373804092 -1.9014240503 0 0 0
          5.8849768639 -5.9893102646 -5.1689414704e-07 17.66501236 -13.485316277 -1.6700080633
          20.871179581 -14.545853615 -0.95040416718 0 0 0
          0.55704402924 -0.23673473299 -0.35768616199 17.700193405 -13.658882141 -0.83521658182
          9.8220100403 -9.2007045746 -7.815605727e-07 0.44529792666 -0.38041779399 -0.14770063758
          1.8712756634 -1.6024047136 0.38002943993 2.932605505 -3.4118816853 -3.0707823839e-07
          12.27437973 -9.7854156494 0.74478119612 14.657363892 -12.715167046 -1.4399240017
          1.03862679 -1.3014284372 -0.43669125438 20.882259369 -14.603192329 -9.5004060086e-07
          0 0 0 0.98600667715 -1.4937807322 -0.2272605747
          14.687939644 -12.890685081 -0.71983897686 17.711662292 -13.717001915 -1.0452997685e-06
          0.42498391867 -0.3976457119 -3.07856034e-08 7.7556290627 -6.2144231796 1.291228056
          7.4536361694 -8.450838089 -0.9908400178 17.640287399 -11.30138588 1.9577339888
          0 0 0 4.0588068962 -5.3987760544 -0.7488437295
          5.8879446983 -5.9252753258 0.51683831215 4.3195748329 -3.4283969402 1.058626771
          14.848427773 -10.391550064 1.7218906879 0.98953396082 -0.29695811868 0.62928956747
          4.0599269867 -5.5967102051 -0.37694817781 7.4712672234 -8.6396017075 -0.49652135372
          9.8154459 -9.1388130188 0.62288492918 2.9495565891 -3.3503918648 0.38782501221
          14.697881699 -12.94968605 -1.1147419627e-06 0.96729725599 -1.5507839918 -1.4137218329e-07
          11.788161278 -12.073850632 -1.2052775621 1.6071757078 -3.0073812008 -0.46810206771
          1.9522565603 -1.4028285742 0.74267452955 20.871179581 -14.545853615 0.95040220022
          12.239175797 -9.6036338806 1.4860066175 0 0 0
          7.4751462936 -8.7015228271 -8.1492629533e-07 4.0557718277 -5.6590619087 -5.3519420362e-07
          11.812336922 -12.251991272 -0.60258930922 17.700193405 -13.658882141 0.83521449566
          1.5832933187 -3.2024219036 -0.23663276434 0.44529780746 -0.38041782379 0.14770054817
          5.8759951591 -5.7259378433 1.0229709148 11.820063591 -12.311420441 -1.1621929161e-06
          14.68793869 -12.890685081 0.71983677149 0.98600637913 -1.4937807322 0.22726026177
          1.5712888241 -3.2612195015 -3.0890097946e-07 23.954723358 -17.816587448 -1.8547207117
          0 0 0 23.98614502 -17.985414505 -0.9265126586
          9.788064003 -8.9527368546 1.242197156 20.411149979 -16.949289322 -1.6276507378
          2.9714734554 -3.1442451477 0.7617328167 5.1828041077 -8.1012592316 -0.73569244146
          0.032022323459 -0.2904419899 -0.10291401297 4.059926033 -5.5967102051 0.37694710493
          7.4712662697 -8.6396017075 0.49651971459 0 0 0
          20.441465378 -17.118700027 -0.81372791529 5.1895990372 -8.287861824 -0.36766940355
          -0.023436298594 -0.42702516913 -0.05085946992 9.0235319138 -11.570541382 -0.96609032154
          2.2339987755 -5.2243871689 -0.47683379054 20.835000992 -14.373804092 1.9014220238
          0 0 0 17.665010452 -13.485315323 1.6700059175
          23.996032715 -18.04135704 -1.4463572597e-06 2.2242875099 -5.4110593796 -0.24011205137
          9.0398511887 -11.749997139 -0.48267000914 0.55704373121 -0.23673476279 0.35768598318
          17.017127991 -16.197090149 -1.4031205177 0.028251327574 -1.3262822628 -0.16163736582
          0 0 0 11.812335968 -12.251991272 0.60258698463
          1.5832929611 -3.2024219036 0.23663212359 20.451637268 -17.175186157 -1.5358056089e-06
          5.1906032562 -8.348072052 -8.3075678958e-07 17.043254852 -16.367334366 -0.70109689236
          -0.0092964395881 -1.5067814589 -0.08944337815 -0.034792609513 -0.45006620884 -2.3365201329e-08
          14.657361984 -12.715166092 1.4399216175 1.0386263132 -1.3014285564 0.43669089675
          9.0449848175 -11.809207916 -1.189957743e-06 2.2191097736 -5.4702997208 -5.3637802466e-07
          7.4536347389 -8.450838089 0.99083828926 17.052150726 -16.42442131 -1.5966400042e-06
          -0.016720453277 -1.5721306801 -1.2953404394e-07 4.0588059425 -5.3987760544 0.74884259701
          23.986143112 -17.985414505 0.92650973797 13.748279572 -15.567369461 -1.1758750677
          0 0 0 0.12956905365 -3.0074388981 -0.2061585784
          13.76904583 -15.739051819 -0.58751893044 20.441465378 -17.118700027 0.81372481585
          -0.023436438292 -0.42702519894 0.050859402865 5.1895985603 -8.287861824 0.36766770482
          0.10394863784 -3.1817424297 -0.10491253436 11.788160324 -12.073850632 1.2052750587
          6.3217368126 -11.209862709 -0.72497600317 9.039850235 -11.749997139 0.48266759515
          1.6071749926 -3.0073814392 0.46810135245 2.2242870331 -5.4110593796 0.24011094868
          2.9170880318 -7.8990278244 -0.48446270823 6.3293361664 -11.386539459 -0.36133095622
          13.776077271 -15.79627037 -1.6341383571e-06 17.043252945 -16.367334366 0.70109367371
          -0.0092967124656 -1.5067815781 0.089443095028 2.9130792618 -8.0751333237 -0.24182884395
          0.095755182207 -3.2388939857 -2.939144963e-07 27.001398087 -21.625585556 -1.8122594357
          0 0 0 -0.42150485516 -0.55018496513 0.072473280132
          6.3316836357 -11.443950653 -1.1975760117e-06 10.57511425 -15.066976547 -0.94581240416
          23.091430664 -20.778465271 -1.589987278 23.954721451 -17.816585541 1.8547177315
          0 0 0 0 0 0
          2.9116487503 -8.132229805 -8.2613308905e-07 0.32005989552 -5.1858778 -0.23530587554
          27.029865265 -21.791015625 -0.90535759926 10.589595795 -15.239031792 -0.47220104933
          23.118808746 -20.943880081 -0.79498708248 20.411148071 -16.949289322 1.6276475191
          -0.43828761578 -0.65534967184 0.028998184949 5.182803154 -8.1012592316 0.73569071293
          0.032022017986 -0.29044207931 0.10291386396 0.30420538783 -5.3531370163 -0.11856696755
          13.769044876 -15.739051819 0.58751559258 0.10394822806 -3.1817424297 0.10491192341
          19.32208252 -20.043148041 -1.3709456921 9.0235309601 -11.570541382 0.96608787775
          2.2339978218 -5.2243871689 0.47683262825 0 0 0
          -0.78538489342 -1.5694271326 0.012371671386 27.038574219 -21.845741272 -2.0541565391e-06
          -0.44147804379 -0.69387894869 -4.6274966081e-09 10.59445858 -15.295798302 -1.6493488602e-06
          19.34545517 -20.208698273 -0.68507641554 17.017126083 -16.197090149 1.4031171799
          23.127861023 -20.99895668 -2.1305247628e-06 0.02825078927 -1.3262822628 0.16163702309
          0.2994607985 -5.4097661972 -5.1691705494e-07 -0.81853580475 -1.7085672617 0.0164329689
          6.3293356895 -11.386539459 0.36132854223 2.9130785465 -8.0751342773 0.24182717502
          3.6379299164 -10.988811493 -0.48824557662 19.353370667 -20.264133453 -2.1788937374e-06
          -0.82909697294 -1.774312377 -1.05552175e-07 3.6368527412 -11.155448914 -0.24305424094
          15.668956757 -19.42505455 -1.1502196789 0 0 0
          -1.0632089376 -3.2118968964 -0.031865492463 27.029863358 -21.791015625 0.90535348654
          -0.43828779459 -0.65534973145 -0.028998220339 10.589594841 -15.239031792 0.47219774127
          15.687573433 -19.591299057 -0.57470995188 13.748277664 -15.567369461 1.1758717299
          23.118808746 -20.943880081 0.79498279095 7.4632487297 -14.700159073 -0.7148322463
          0.59492582083 -7.8272995949 -0.25806078315 0.12956826389 -3.0074391365 0.20615790784
          -1.0852799416 -3.3418490887 -0.0074827428907 0.30420485139 -5.3531370163 0.11856591702
          7.4709119797 -14.86902523 -0.35597398877 0.58430075645 -7.9859933853 -0.12847907841
          3.6366217136 -11.209737778 -1.1829985169e-06 6.3217349052 -11.209862709 0.72497349977
          19.345453262 -20.208698273 0.6850720644 2.9170866013 -7.8990278244 0.4844609797
          15.693867683 -19.646640778 -2.2005260689e-06 -0.81853610277 -1.7085673809 -0.016433207318
          -1.0902210474 -3.3922200203 -2.6655084184e-07 7.473426342 -14.923822403 -1.644173949e-06
          0.58185118437 -8.0401449203 -7.9892492977e-07 -1.2162029743 -5.3267598152 -0.062701351941
          12.105443954 -18.929103851 -0.92755806446 27.001396179 -21.625585556 1.8122551441
          0 0 0 3.6368517876 -11.155448914 0.24305185676
          -0.42150515318 -0.55018508434 -0.072473414242 -1.2338322401 -5.457303524 -0.022942798212
          10.575112343 -15.066976547 0.94580900669 23.091426849 -20.778463364 1.5899829865
          12.118738174 -19.095155716 -0.46306267381 29.978477478 -25.793581009 -1.771950841
          0 0 0 0.32005885243 -5.1858778 0.23530475795
          30.005176544 -25.955307007 -0.88533008099 -0.22428311408 -1.0266646147 0.024150103331
          25.71046257 -24.965496063 -1.5547770262 15.687572479 -19.591299057 0.57470548153
          0 0 0 -1.0852802992 -3.3418493271 0.0074821896851
          25.736120224 -25.126922607 -0.77748304605 -0.22659450769 -1.0351213217 0.023999549448
          7.470911026 -14.86902523 0.35597068071 0.5843001008 -7.9859933853 0.12847745419
          19.322078705 -20.043148041 1.3709411621 -1.2384877205 -5.506228447 -4.8419315135e-07
          12.123206139 -19.149845123 -2.2001877369e-06 -0.78538542986 -1.5694272518 -0.012371982448
          4.3798394203 -14.467494011 -0.48789441586 -0.62431156635 -2.0900144577 0.037177361548
          21.576284409 -24.246030807 -1.3411719799 0.92669689655 -10.893866539 -0.2737365365
          30.013126373 -26.008787155 -2.7769347071e-06 0 0 0
          4.38063097 -14.626318932 -0.24288986623 25.744470596 -25.180639267 -2.8375116017e-06
          -0.23194520175 -1.0628640652 3.4223965883e-09 21.598064423 -24.407197952 -0.67027574778
          -0.62629008293 -2.1299660206 0.034288465977 0.91944998503 -11.044074059 -0.13619890809
          3.6379282475 -10.988811493 0.48824313283 4.3808822632 -14.67803669 -1.6159590359e-06
          -1.2773922682 -7.9161772728 -0.08779964596 -1.2338327169 -5.457303524 0.022941809148
          8.6020879745 -18.558641434 -0.70435464382 21.605361938 -24.461133957 -2.8674583064e-06
          15.668954849 -19.42505455 1.1502151489 12.118736267 -19.095155716 0.46305823326
          0.91793876886 -11.095598221 -1.144734938e-06 -0.63565248251 -2.1668097973 -8.7087094869e-08
          -1.0632097721 -3.2118971348 0.03186487034 30.005174637 -25.955307007 0.88532453775
          17.552148819 -23.639289856 -1.1264714003 -1.2937818766 -8.0433597565 -0.037465233356
          -1.0472142696 -3.6120183468 0.064353652298 8.6097249985 -18.721221924 -0.35074737668
          7.4632463455 -14.700159073 0.71482884884 0.59492450953 -7.8272995949 0.25805911422
          0 0 0 -1.0543311834 -3.671361208 0.040073446929
          25.736118317 -25.126922607 0.77747732401 -0.2265946418 -1.0351214409 -0.023999577388
          17.569536209 -23.800703049 -0.56289201975 -1.2981649637 -8.0908374786 -7.5863169968e-07
          8.6122484207 -18.773817062 -2.1786927391e-06 4.3806300163 -14.626318932 0.24288661778
          17.575361252 -23.854394913 -2.8716838187e-06 -1.0638180971 -3.6987395287 -2.3978404329e-07
          21.598062515 -24.407197952 0.67027002573 -0.62629038095 -2.129966259 -0.034288682044
          0.91944921017 -11.044074059 0.13619659841 -1.2162040472 -5.3267602921 0.062700293958
          12.105441093 -18.929103851 0.92755353451 13.613669395 -23.148885727 -0.91040289402
          29.978473663 -25.793581009 1.7719451189 0 0 0
          -1.4355869293 -5.6345376968 0.060815569013 -0.2242833972 -1.0266647339 -0.024150252342
          25.710460663 -24.965496063 1.5547713041 -1.2937825918 -8.0433597565 0.037463698536
          8.6097230911 -18.721221924 0.35074299574 13.626281738 -23.3097229 -0.45450261235
          1.2950479984 -14.357518196 -0.28394338489 -1.4491889477 -5.7098889351 0.034819409251
          -1.0543316603 -3.671361208 -0.04007396102 17.569534302 -23.800703049 0.5628862977
          1.2905323505 -14.500032425 -0.14147718251 5.128967762 -18.316015244 -0.48516008258
          -1.2663297653 -10.950255394 -0.11380162835 32.88924408 -30.312278748 -1.7331836224
          0 0 0 28.271820068 -29.502298355 -1.5211662054
          4.379837513 -14.467494011 0.487891078 -0.6243121624 -2.0900144577 -0.037177689373
          21.576280594 -24.246030807 1.3411660194 -1.2812912464 -11.070207596 -0.05136455223
          5.1308026314 -18.46846199 -0.24186845124 0.92669528723 -10.893866539 0.27373415232
          32.914741516 -30.470197678 -0.86602205038 0 0 0
          -1.4543101788 -5.7430267334 -4.4846649416e-07 13.630512238 -23.362632751 -2.8514803034e-06
          0.075130343437 -1.2405914068 -0.06755258888 28.296325684 -29.659790039 -0.76072770357
          0.074818320572 -1.2228426933 -0.031606599689 1.2897313833 -14.549285889 -1.5630668031e-06
          23.782758713 -28.797927856 -1.312864542 -1.2847006321 -11.115929604 -1.0951083596e-06
          5.1314964294 -18.518148422 -2.1329647097e-06 32.922233582 -30.522411346 -3.6145106606e-06
          0 0 0 0.075449727476 -2.30788064 -0.019434882328
          23.803541183 -28.954940796 -0.65616768599 28.304239273 -29.712179184 -3.6545536659e-06
          -1.2773935795 -7.9161777496 0.087798044086 8.6020851135 -18.558641434 0.70435017347
          0.077389501035 -1.2434500456 -7.1925980727e-09 0.10010238737 -2.3103272915 -0.012903819792
          17.552145004 -23.639289856 1.126465559 -1.0472151041 -3.6120185852 -0.064354278147
          -1.7667065859 -8.1606760025 0.032035954297 9.7344179153 -22.777606964 -0.69414037466
          -1.4491895437 -5.7098889351 -0.034820340574 13.626280785 -23.3097229 0.4544968605
          -1.7846332788 -8.2418251038 0.021354110911 9.7420053482 -22.934720993 -0.34574049711
          1.2905313969 -14.500032425 0.14147403836 23.810466766 -29.007471085 -3.6647729758e-06
          0.097288370132 -2.3360011578 -1.044150082e-07 19.39931488 -28.202415466 -1.1038446426
          -1.2812920809 -11.070207596 0.051362346858 5.1308012009 -18.46846199 0.2418641597
          32.914737701 -30.470197678 0.86601477861 0 0 0
          0.14641661942 -3.7060961723 0.084589995444 19.4159832 -28.359380722 -0.551607728
          28.296323776 -29.659790039 0.7607203722 0.1623711139 -3.7218031883 0.022253844887
          -1.7874083519 -8.276638031 -7.1645109756e-07 9.7445821762 -22.985561371 -2.8088265935e-06
          0.074818193913 -1.2228426933 0.03160655126 23.803539276 -28.954940796 0.65616035461
          19.421543121 -28.411577225 -3.6481812913e-06 0.16067130864 -3.7525391579 -2.5855084118e-07
          13.613666534 -23.148885727 0.91039705276 1.6890801191 -18.192512512 -0.29102689028
          0.1001021266 -2.3103272915 0.012903571129 -1.4355881214 -5.6345381737 -0.060816604644
          -1.2005796432 -14.392518997 -0.13789439201 1.6866947412 -18.32890892 -0.14493791759
          1.2950460911 -14.357518196 0.28394016623 -1.2119187117 -14.504513741 -0.063798733056
          -1.7846339941 -8.2418251038 -0.021355571225 9.7420043945 -22.934720993 0.34573486447
          5.1289658546 -18.316015244 0.48515570164 -1.266331315 -10.950255394 0.11379935592
          0.18053506315 -5.7936677933 0.061470177025 15.09895134 -27.718523026 -0.89387768507
          32.889240265 -30.312278748 1.7331762314 0 0 0
          28.271816254 -29.502298355 1.5211586952 0.17701418698 -5.817905426 0.034777104855
          1.6866015196 -18.376314163 -2.0622705961e-06 -2.0074396133 -11.144873619 -0.0087325712666
          5.8855414391 -22.527280807 -0.48292538524 15.111228943 -27.874628067 -0.44626361132
          0.075130075216 -1.2405914068 0.067552424967 -1.2145746946 -14.549261093 -1.4961964325e-06
          19.415981293 -28.359380722 0.55160039663 0.16237071157 -3.7218034267 -0.022254398093
          5.8880929947 -22.67449379 -0.24076755345 -2.0276529789 -11.222611427 0.002536312677
          23.782754898 -28.797927856 1.312857151 0.17763784528 -5.8414416313 -4.53552218e-07
          15.115341187 -27.92596817 -3.606800874e-06 0.075449205935 -2.3078808784 0.019434528425
          5.8892555237 -22.722660065 -2.7421447157e-06 35.736515045 -35.173309326 -1.6958090067
          0 0 0 -2.0303103924 -11.255245209 -1.0487962072e-06
          35.761062622 -35.327487946 -0.84737229347 0 0 0
          1.6866935492 -18.32890892 0.14493377507 30.778158188 -34.380691528 -1.4888205528
          -1.7667080164 -8.1606760025 -0.032037507743 9.7344150543 -22.777608871 0.69413465261
          0.61053341627 -1.0482976437 -0.19619165361 -1.2119196653 -14.504513741 0.06379571557
          30.801767349 -34.534381866 -0.74457269907 0.60114520788 -1.0881470442 -0.07410325855
          19.399311066 -28.202415466 1.1038371325 35.768253326 -35.37845993 -4.5627425607e-06
          0.17701366544 -5.817905426 -0.034778054804 25.943555832 -33.690895081 -1.2856029272
          1.2364088297 -2.080945015 -0.080662406981 15.111227036 -27.874628067 0.44625636935
          0 0 0 10.857484818 -27.348415375 -0.68415373564
          0.12545670569 -8.3399677277 0.050826430321 0.14641584456 -3.7060964108 -0.084590643644
          1.243508935 -2.1431245804 -0.06354483217 25.963638306 -33.843978882 -0.64255613089
          30.809375763 -34.585494995 -4.5800761654e-06 5.888092041 -22.67449379 0.24076204002
          0.11980812252 -8.3737812042 0.025350647047 10.865200043 -27.500642776 -0.34085345268
          -2.0276536942 -11.222612381 -0.0025384253822 0.58426624537 -1.1167463064 -2.0459987482e-08
          -1.0874782801 -18.203292847 -0.15225666761 25.970317841 -33.895183563 -4.5681590564e-06
          1.6890779734 -18.19251442 0.29102265835 1.2147105932 -2.1847634315 -1.5159342581e-07
          0.12004325539 -8.4010314941 -6.9729691177e-07 -1.0943924189 -18.31047821 -0.071619510651
          10.867853165 -27.549982071 -3.5417615436e-06 -1.2005814314 -14.392518997 0.13789130747
          35.761062622 -35.327487946 0.84736317396 21.21128273 -33.106582642 -1.0819225311
          -2.1392738819 -14.561770439 -0.056067992002 0 0 0
          1.4567015171 -3.2473912239 -0.030758287758 2.1109781265 -22.390140533 -0.29667451978
          1.4715458155 -3.3193016052 -0.040062647313 21.227519989 -33.259422302 -0.54065984488
          30.801765442 -34.534381866 0.74456351995 -2.1568677425 -14.639148712 -0.017572434619
          2.1101508141 -22.521928787 -0.14733955264 0.60114502907 -1.0881470442 0.074103191495
          0.18053403497 -5.7936677933 -0.061471231282 15.098948479 -27.718523026 0.8938703537
          -1.0966818333 -18.353727341 -1.9763294858e-06 -2.0074412823 -11.144874573 0.0087304087356
          5.8855390549 -22.527280807 0.4829197824 21.23292923 -33.310237885 -4.5287752073e-06
          25.963636398 -33.843978882 0.64254695177 -2.161642313 -14.673881531 -1.4301364217e-06
          1.2435085773 -2.1431245804 0.063544511795 1.4693912268 -3.3907430172 -3.0585530908e-07
          0.11980742961 -8.3737812042 -0.025352088735 10.865198135 -27.500642776 0.34084632993
          2.1106231213 -22.567768097 -2.6514471756e-06 6.6487727165 -27.092847824 -0.48019641638
          0.087909460068 -11.298039436 0.028762834147 6.652112484 -27.235630035 -0.23941920698
          0.079795703292 -11.338389397 0.015928991139 35.73651123 -35.173309326 1.6957997084
          0 0 0 -1.0943934917 -18.31047821 0.071615532041
          1.6671152115 -5.5921425819 0.044822327793 16.560525894 -32.629886627 -0.8776102066
          1.6894974709 -5.624818325 -0.0026724983472 30.778154373 -34.380691528 1.4888113737
          0.61053311825 -1.0482976437 0.1961914748 16.572715759 -32.781661987 -0.43815642595
          21.227518082 -33.259422302 0.54065078497 -2.1568686962 -14.639148712 0.017569549382
          1.4715454578 -3.3193016052 0.040062017739 2.1101493835 -22.521928787 0.14733421803
          6.6535563469 -27.282495499 -3.4522797705e-06 0.078604988754 -11.358804703 -9.9936050901e-07
          25.943552017 -33.690895081 1.2855937481 1.2364082336 -2.080945015 0.080662041903
          10.857481956 -27.348415375 0.68414652348 1.6984186172 -5.6561498642 -4.8292230304e-07
          0.12545539439 -8.3399677277 -0.050828006119 16.576791763 -32.831581116 -4.4641783461e-06
          38.52274704 -40.368549347 -1.6597691774 0 0 0
          -1.0874804258 -18.203292847 0.1522525996 6.6521110535 -27.235630035 0.23941227794
          0 0 0 33.231544495 -39.59267807 -1.4575673342
          -2.1833109856 -18.319932938 -0.073044225574 0.079794794321 -11.33839035 -0.015931045637
          0.57138079405 -0.59477329254 -0.089339159429 -0.93161433935 -22.373682022 -0.15900182724
          38.546470642 -40.519168854 -0.82937449217 21.211278915 -33.106586456 1.081913352
          33.254390717 -39.742771149 -0.72895085812 0.59863042831 -0.72373223305 -0.035446051508
          -2.1392757893 -14.561770439 0.056065015495 -2.1942791939 -18.396677017 -0.028197167441
          1.4567008018 -3.2473912239 0.030757602304 11.96928978 -32.262275696 -0.67387396097
          1.689496994 -5.624818325 0.0026715032291 2.1109755039 -22.390140533 0.29666909575
          1.9488501549 -8.1477689743 0.026213344187 16.572713852 -32.781661987 0.43814748526
          -0.93539786339 -22.478628159 -0.075568646193 1.9573893547 -8.2047014236 0.0099991066381
          11.977327347 -32.410121918 -0.3358079493 28.060087204 -38.917076111 -1.2591433525
          38.553432465 -40.568958282 -5.6194194258e-06 0.89284312725 -1.6938351393 -0.015754768625
          0 0 0 28.079641342 -39.066482544 -0.62933522463
          0.92161500454 -1.820171833 -0.018884709105 33.261756897 -39.792682648 -5.6127446442e-06
          2.5573439598 -26.944473267 -0.30012196302 -2.2004830837 -18.43081665 -1.8907761614e-06
          -0.93708884716 -22.520273209 -2.5457479751e-06 0.058019157499 -14.711821556 0.016195010394
          0.60372179747 -0.76088070869 -4.1013574759e-08 2.557696104 -27.072597504 -0.14882032573
          11.980078697 -32.45810318 -4.3753666432e-06 0.050252180547 -14.771782875 0.0085546514019
          1.9620474577 -8.2369747162 -7.2459556577e-07 6.6487693787 -27.092847824 0.48018938303
          28.086141586 -39.116451263 -5.5771974985e-06 0.087907791138 -11.29804039 -0.028765048832
          0.94069743156 -1.8675043583 -1.6676148107e-07 22.988456726 -38.344013214 -1.0604343414
          38.546466827 -40.519168854 0.82936322689 2.5584611893 -27.117090225 -3.3402036479e-06
          1.1261746883 -3.0868387222 -0.039877574891 1.667114377 -5.5921425819 -0.044823411852
          0.046974889934 -14.798380852 -1.3847022728e-06 16.560522079 -32.629886627 0.8776011467
          0 0 0 23.004447937 -38.493026733 -0.52992242575
          1.1479295492 -3.2320516109 -0.010612855665 33.254390717 -39.742771149 0.72893959284
          -2.1942801476 -18.396677017 0.028193349019 -0.93539911509 -22.478630066 0.075563527644
          0.5986302495 -0.72373223305 0.035445950925 11.977325439 -32.410121918 0.33579918742
          1.9573887587 -8.2047014236 -0.010000593029 28.079639435 -39.066482544 0.62932401896
          23.009773254 -38.542568207 -5.5133295973e-06 7.4143238068 -32.00378418 -0.47613462806
          2.1246509552 -11.157767296 0.051279906183 1.1634013653 -3.290941 -3.1842859016e-07
          0.92161476612 -1.820171833 0.018884364516 2.1348621845 -11.220552444 0.018230360001
          2.5576946735 -27.072597504 0.14881362021 7.4184851646 -32.14264679 -0.23747913539
          0.050251036882 -14.771782875 -0.0085574677214 17.997594833 -37.875110626 -0.861325562
          38.522743225 -40.368549347 1.6597578526 0 0 0
          1.2858048677 -5.1511397362 0.012519313022 18.0098629 -38.022918701 -0.43003311753
          33.23154068 -39.59267807 1.4575560093 1.3097143173 -5.285012722 0.0003858540731
          -2.1833131313 -18.319932938 0.073040291667 7.4201464653 -32.188339233 -4.2623346417e-06