<?xml version="1.0"?>
<VTKFile type="UnstructuredGrid" version="0.1" byte_order="LittleEndian" header_type="UInt32" compressor="vtkZLibDataCompressor">
  <UnstructuredGrid>
    <Piece NumberOfPoints="6405" NumberOfCells="4800">
      <PointData>
        <DataArray type="Float32" Name="DISPLACEMENT" NumberOfComponents="3" ComponentName0="X-DISPLACEMENT" ComponentName1="Y-DISPLACEMENT" ComponentName2="Z-DISPLACEMENT" format="ascii" RangeMin="0" RangeMax="345.04038458">
          0 0 0 0 0 0
          2.8018410206 -1.5656201839 -1.2954543829 0 0 0
          1.6035915613 -0.84676623344 -0.85131311417 0 0 0
          2.578109026 -1.825119257 -0.51030117273 1.3940030336 -1.0754729509 -0.34644567966
          0 0 0 5.1326627731 -3.34390378 -1.3305737972
          0 0 0 5.0680799484 -3.6464078426 -0.67418175936
          3.2196834087 -2.7910218239 -0.95491963625 0 0 0
          0 0 0 2.5963134766 -1.8985329866 3.3543825495e-09
          0.7390422821 -0.52294993401 -0.44301125407 1.3854714632 -1.1151535511 7.8715070018e-09
          3.1466469765 -3.0469124317 -0.48439374566 0.62421065569 -0.74541419744 -0.17861363292
          5.0148816109 -3.7283916473 1.72085457e-08 1.6516405344 -2.4034717083 -0.56770074368
          0 0 0 3.1042013168 -3.1227030754 2.3393294413e-08
          1.5550794601 -2.6439909935 -0.2846635282 0 0 0
          7.1996421814 -5.9080271721 -1.2178367376 0 0 0
          0.62531030178 -0.78148823977 9.9554098298e-09 0 0 0
          0 0 0 2.578109026 -1.825119257 0.51030117273
          4.7410769463 -5.3910822868 -0.92323964834 7.2221999168 -6.1286034584 -0.61463433504
          -0.16611513495 -0.4446246922 0.0037280300166 1.3940030336 -1.0754729509 0.34644567966
          4.7483668327 -5.5998740196 -0.46853604913 -0.26934447885 -0.69017261267 -0.016602033749
          1.5140836239 -2.7079415321 2.7879467623e-08 5.0680799484 -3.6464078426 0.67418175936
          0 0 0 0 0 0
          -0.13692116737 -2.2493770123 -0.18212327361 2.595952034 -5.0275354385 -0.63174241781
          7.1971812248 -6.2013669014 3.8522678381e-08 3.1466469765 -3.0469124317 0.48439380527
          2.5357196331 -5.2245988846 -0.32310155034 0.62421065569 -0.74541419744 0.17861364782
          4.7329425812 -5.6643395424 4.5763670187e-08 -0.25121670961 -2.4874837399 -0.10580194741
          -0.3044012785 -0.7350615263 9.5350349838e-09 0 0 0
          9.019692421 -8.940155983 -1.0422972441 0 0 0
          6.1763834953 -8.4931707382 -0.86082053185 1.5550794601 -2.6439909935 0.28466355801
          9.0702180862 -9.0779390335 -0.52573877573 2.8018410206 -1.5656203032 1.2954543829
          0 0 0 0 0 0
          -0.28839489818 -2.5504996777 3.1766546726e-08 2.5126781464 -5.2836995125 5.2812730189e-08
          -1.0184812546 -0.75646328926 0.29212787747 6.2087368965 -8.6255483627 -0.43317055702
          1.6035916805 -0.84676623344 0.85131317377 0.17843875289 -4.8188066483 -0.35780206323
          0 0 0 7.2221999168 -6.1286034584 0.61463445425
          -1.1385288239 -0.96896064281 0.12424702942 0.0905027017 -5.0061483383 -0.19294914603
          4.7483673096 -5.5998740196 0.46853613853 -0.26934444904 -0.69017261267 0.016602054238
          3.6227200031 -8.1645975113 -0.68804985285 -1.439835906 -2.3697853088 0.022150302306
          9.0605401993 -9.1238584518 6.3108544168e-08 5.1326627731 -3.34390378 1.3305737972
          0 0 0 0 0 0
          3.5849564075 -8.2814512253 -0.34760978818 3.2196834087 -2.7910218239 0.95491969585
          6.2095432281 -8.668759346 7.06883867e-08 -1.6311029196 -2.5575873852 0.018436264247
          0.7390422821 -0.52294993401 0.44301128387 -1.2067348957 -1.0404684544 1.6658228574e-08
          0.075615040958 -5.0637097359 6.0363085197e-08 2.5357196331 -5.2245988846 0.32310163975
          -0.25121670961 -2.4874837399 0.10580201447 3.5757832527 -8.3209514618 7.9933869301e-08
          1.6516406536 -2.4034719467 0.56770086288 -1.651165843 -2.6401965618 3.577257246e-08
          0.84172636271 -7.9411511421 -0.55688643456 9.0702180862 -9.0779390335 0.52573895454
          7.1996421814 -5.9080271721 1.2178368568 0 0 0
          10.573212624 -12.230113983 -0.88483124971 0 0 0
          0 0 0 -1.2985622883 -4.9677462578 -0.49418902397
          0.77657341957 -8.0338668823 -0.28015273809 10.624763489 -12.295995712 -0.44570302963
          7.5093183517 -11.842260361 -0.80091577768 6.2087368965 -8.6255483627 0.43317070603
          -0.53761619329 -1.3035366535 0.2294742316 0 0 0
          4.7410769463 -5.3910822868 0.92323976755 -0.16611510515 -0.4446246922 -0.0037280037068
          -1.5146313906 -4.9791259766 -0.19782155752 -1.1385289431 -0.96896064281 -0.12424699962
          -0.61536860466 -1.3012419939 0.11196345091 0.090502738953 -5.0061483383 0.19294926524
          7.546746254 -11.906333923 -0.40042322874 3.5849564075 -8.2814512253 0.34760996699
          0.77627903223 -8.0710401535 9.064076778e-08 10.624063492 -12.319683075 8.7259323323e-08
          -0.85458403826 -2.8707311153 -0.5172226429 -1.6311030388 -2.5575873852 -0.018436193466
          0 0 0 4.7018089294 -11.547554016 -0.72554582357
          -0.13692109287 -2.2493772507 0.18212334812 2.595952034 -5.0275354385 0.63174253702
          -1.5151472092 -5.0368299484 1.0363618941e-07 7.5539331436 -11.928037643 9.4233961079e-08
          -0.60865342617 -1.3538845778 -9.2860396705e-08 -1.1557663679 -2.7229230404 -0.16208432615
          4.6869106293 -11.592470169 -0.3659183383 9.0196933746 -8.940155983 1.0422973633
          0 0 0 -0.46186122298 -8.3689861298 -1.0236642361
          6.1763834953 -8.4931707382 0.86082065105 -1.1293435097 -2.7907629013 1.0995991673e-08
          -0.54215854406 -8.2122945786 -0.4339196682 4.6860251427 -11.611948013 1.0395286409e-07
          -1.018481493 -0.75646328926 -0.29212784767 0.77657341957 -8.0338668823 0.28015291691
          1.7659592628 -11.3183918 -0.71688628197 10.624764442 -12.295995712 0.44570320845
          -0.17902424932 -7.2780227661 -1.5446482897 0.1784388274 -4.8188066483 0.35780218244
          0 0 0 -1.5146315098 -4.9791259766 0.19782170653
          1.7335202694 -11.330967903 -0.35391408205 -0.61536836624 -1.3012419939 -0.11196354032
          -0.14937035739 -7.0925979614 -0.67969834805 7.546746254 -11.906333923 0.40042340755
          3.6227200031 -8.1645975113 0.68805003166 -1.4398361444 -2.3697850704 -0.022150283679
          11.901734352 -15.585195541 -0.76637864113 0 0 0
          -0.53089368343 -8.2429685593 9.5255607846e-08 8.7459030151 -15.240960121 -0.74700111151
          11.945641518 -15.603544235 -0.38601136208 0 0 0
          -0.11408489197 -1.849879384 -0.29121011496 8.7821455002 -15.258944511 -0.37262204289
          1.7381008863 -11.349599838 1.1331130878e-07 -0.29684254527 -1.5904165506 -0.091735906899
          -1.1557655334 -2.7229230404 0.16208446026 -0.06305757165 -7.1263136864 5.844152895e-08
          4.6869106293 -11.592470169 0.36591854692 5.796271801 -14.965689659 -0.734626472
          -0.21612626314 -4.5893774033 -1.2367135286 11.950380325 -15.611776352 1.0713654319e-07
          0 0 0 -0.44065672159 -4.4750561714 -0.57716780901
          5.805542469 -14.967387199 -0.36958885193 8.7915906906 -15.266072273 1.1331059113e-07
          -0.30530622602 -1.5515841246 6.5353766843e-08 0.84172642231 -7.9411511421 0.55688661337
          0.41632169485 -11.769278526 -1.0692396164 10.573212624 -12.230113983 0.88483142853
          0 0 0 -0.29895862937 -9.8293266296 -1.5260366201
          -0.54215937853 -8.2122945786 0.43391978741 -1.2985625267 -4.9677462578 0.49418902397
          7.5093183517 -11.842260361 0.8009159565 -0.53761583567 -1.3035367727 -0.22947405279
          -0.12346426398 -9.7174816132 -0.72767776251 0.50078731775 -11.700411797 -0.48986947536
          1.7335203886 -11.330967903 0.35391429067 -0.1493691355 -7.0925989151 0.67969858646
          5.810277462 -14.973087311 1.2464045085e-07 -0.37117448449 -4.6054792404 1.7298201271e-07
          2.8690693378 -14.731996536 -0.78098237514 -0.65311437845 -8.4679412842 -1.5649526119
          -0.85458302498 -2.8707306385 0.51722282171 11.945641518 -15.603544235 0.38601157069
          4.7018094063 -11.547554016 0.72554600239 0 0 0
          0.55393332243 -11.755105019 3.8373588751e-08 -0.067656688392 -9.7485933304 -8.1176299016e-10
          2.8749344349 -14.706924438 -0.38480955362 8.7821455002 -15.258944511 0.37262228131
          -0.51508700848 -8.3167152405 -0.8700824976 -0.29684248567 -1.5904165506 0.091736026108
          -0.46186226606 -8.3689851761 1.0236639977 2.8822729588 -14.710354805 1.3962768719e-07
          5.805542469 -14.967387199 0.36958909035 -0.44065660238 -4.4750556946 0.57716798782
          -0.47479909658 -8.2094154358 2.5763756639e-07 13.077718735 -18.893795013 -0.69028586149
          0 0 0 13.111868858 -18.889719009 -0.3470377028
          1.7659592628 -11.3183918 0.71688652039 9.9033470154 -18.572151184 -0.69950473309
          -0.17902213335 -7.2780246735 1.5446484089 0.0189656578 -12.725567818 -1.1843386889
          0.39325919747 -3.3255898952 -1.1699728966 -0.12346333265 -9.7174825668 0.72767788172
          0.50078690052 -11.700411797 0.48986962438 0 0 0
          9.9357280731 -18.569200516 -0.34850305319 0.13684034348 -12.679487228 -0.58431953192
          0.035530682653 -3.1496818066 -0.40583458543 1.1757756472 -14.834793091 -0.92474228144
          -0.42891767621 -11.536771774 -1.4166374207 11.901734352 -15.585195541 0.76637887955
          0 0 0 8.7459030151 -15.240960121 0.74700129032
          13.119793892 -18.890146255 1.1523255949e-07 -0.19534550607 -11.751241684 -0.73677968979
          1.2553875446 -14.774947166 -0.44677075744 -0.11408473551 -1.8498792648 0.29121014476
          6.8836665154 -18.29911232 -0.70980972052 0.18269437551 -6.3847932816 -1.5249643326
          0 0 0 2.8749346733 -14.706924438 0.38480982184
          -0.51508694887 -8.3167161942 0.87008291483 9.9453773499 -18.569068909 1.2221124734e-07
          0.16579182446 -12.683751106 5.1227718956e-08 6.9102125168 -18.286348343 -0.35622704029
          0.0021734796464 -6.4822106361 -0.72837734222 0.043511331081 -3.0988121033 3.7036062395e-07
          5.796271801 -14.965689659 0.73462671041 -0.21612620354 -4.5893769264 1.2367136478
          1.2841932774 -14.777304649 1.26560181e-07 -0.071066536009 -11.930334091 8.1423557674e-08
          0.4163210988 -11.769278526 1.0692398548 6.9180445671 -18.285440445 1.3709308178e-07
          -0.04943844676 -6.5357317924 1.5390560293e-07 -0.29895722866 -9.8293266296 1.526037097
          13.111868858 -18.889719009 0.34703794122 4.0008196831 -18.063863754 -0.7587800622
          0 0 0 -0.073907382786 -10.507125854 -1.5720407963
          4.0336732864 -18.036680222 -0.37362381816 9.9357280731 -18.569200516 0.34850329161
          0.035530295223 -3.1496808529 0.40583509207 0.13684117794 -12.679488182 0.58431965113
          0.0071922568604 -10.652993202 -0.8037275672 2.8690693378 -14.731996536 0.78098261356
          0.38078394532 -15.548552513 -1.0291780233 1.2553874254 -14.774947166 0.44677102566
          -0.65311431885 -8.4679422379 1.5649523735 -0.19534549117 -11.751241684 0.7367798686
          -0.59550327063 -13.782287598 -1.1704136133 0.46575972438 -15.488987923 -0.50061756372
          4.0418357849 -18.034296036 1.593701171e-07 6.9102125168 -18.286348343 0.35622730851
          0.0021728768479 -6.4822096825 0.72837764025 -0.44718360901 -13.826436043 -0.59499257803
          0.016817236319 -10.625788689 -1.6772119693e-08 14.173092842 -22.124969482 -0.64951062202
          0 0 0 1.6536890268 -5.0856637955 -0.91525894403
          0.48256069422 -15.469274521 1.8792363221e-07 2.0446999073 -18.07673645 -0.81903457642
          11.007263184 -21.809700012 -0.65946906805 13.077718735 -18.893795013 0.69028609991
          0 0 0 0 0 0
          -0.38068881631 -13.864923477 2.3646315128e-07 -0.41266721487 -12.865884781 -1.3563350439
          14.197447777 -22.117696762 -0.32511013746 2.1099476814 -18.041898727 -0.39796808362
          11.033086777 -21.804328918 -0.32843798399 9.9033470154 -18.572151184 0.6995049715
          1.7100661993 -5.3440589905 -0.39187541604 0.0189669393 -12.725568771 1.1843390465
          0.39325875044 -3.3255887032 1.1699727774 -0.27470102906 -13.11090374 -0.65648770332
          4.0336732864 -18.036680222 0.37362414598 0.0071927923709 -10.652994156 0.8037276268
          7.9412140846 -21.523479462 -0.66632205248 1.1757752895 -14.834793091 0.92474257946
          -0.42891782522 -11.536771774 1.4166376591 0 0 0
          1.8835692406 -8.3680143356 -0.71883767843 14.206193924 -22.116012573 1.0630612479e-07
          1.8001544476 -5.3597240448 5.1012602853e-07 2.1279511452 -18.036846161 1.818262092e-07
          7.9724645615 -21.514543533 -0.33228322864 6.8836665154 -18.29911232 0.70981001854
          11.041481018 -21.802495956 1.1581316528e-07 0.1826941222 -6.3847932816 1.5249649286
          -0.23083923757 -13.255683899 1.0489559799e-07 1.9572548866 -8.6924333572 -0.41306835413
          0.46576011181 -15.488987923 0.50061792135 -0.4471835494 -13.826436996 0.59499299526
          -0.46169447899 -16.42134285 -1.0433746576 7.9809193611 -21.511442184 1.3264505583e-07
          1.9995830059 -8.822227478 7.7500601492e-08 -0.38484618068 -16.389957428 -0.52115219831
          5.0624556541 -21.296205521 -0.68164920807 0 0 0
          1.5879983902 -12.169478416 -0.59364616871 14.197447777 -22.117696762 0.32511034608
          1.7100658417 -5.34405756 0.39187642932 2.109947443 -18.041898727 0.39796844125
          5.099339962 -21.280370712 -0.3396088779 4.0008196831 -18.063863754 0.75878036022
          11.033086777 -21.804328918 0.32843822241 0.8417096734 -18.524940491 -0.85175329447
          -0.15209501982 -15.482887268 -1.1860814095 -0.073906742036 -10.507127762 1.5720413923
          1.6899365187 -12.579375267 -0.41657787561 -0.27470055223 -13.110904694 0.65648800135
          0.9012452364 -18.485439301 -0.43228745461 -0.074570693076 -15.581749916 -0.579880476
          -0.3601308763 -16.367916107 2.469319611e-07 0.38078460097 -15.548553467 1.029178381
          7.9724645615 -21.514543533 0.33228346705 -0.59550321102 -13.782288551 1.1704137325
          5.1057271957 -21.27504158 1.5370179085e-07 1.9572546482 -8.6924333572 0.41306883097
          1.8007748127 -12.790131569 -5.5022986167e-09 0.91741341352 -18.476278305 2.0696955971e-07
          -0.071753330529 -15.616400719 1.5502162398e-07 0.64259034395 -14.857542038 -0.80031371117
          2.8552677631 -21.250032425 -0.70188349485 14.173092842 -22.124969482 0.64951080084
          0 0 0 -0.38484612107 -16.389957428 0.52115267515
          1.6536886692 -5.0856618881 0.91526007652 0.83515411615 -15.601921082 -0.42162591219
          2.0446994305 -18.07673645 0.81903487444 11.007263184 -21.809700012 0.65946924686
          2.8960940838 -21.223333359 -0.35311993957 15.238435745 -25.304784775 -0.63216984272
          0 0 0 -0.412666291 -12.865885735 1.3563357592
          15.253951073 -25.303909302 -0.31513905525 -0.25602823496 -5.4280509949 -0.32413321733
          12.074803352 -24.990419388 -0.63070261478 5.099339962 -21.280370712 0.33960917592
          0 0 0 1.6899363995 -12.579376221 0.41657826304
          12.092411995 -24.991256714 -0.31381127238 -0.27077770233 -5.6596393585 -0.23083101213
          0.901245296 -18.485439301 0.43228784204 -0.074570462108 -15.58175087 0.57988089323
          7.9412140846 -21.523479462 0.6663222909 0.95522904396 -15.965841293 1.9471914925e-07
          2.9070134163 -21.21767807 1.6301871142e-07 1.8835688829 -8.3680143356 0.71883863211
          -0.13512769341 -18.992124557 -0.96224659681 -0.26893016696 -8.7804555893 -0.39328202605
          8.9757652283 -24.692699432 -0.62227427959 -0.18902237713 -17.851392746 -1.0193368196
          15.26146698 -25.303356171 7.7952030608e-08 0 0 0
          -0.08328115195 -18.962646484 -0.48992162943 12.098875999 -24.990293503 9.2245031169e-08
          -0.29329743981 -5.6489310265 1.9762030945e-07 9.0000810623 -24.691534042 -0.30985057354
          -0.1784170419 -9.1172456741 -0.1594722718 -0.12785808742 -17.869165421 -0.52289664745
          -0.46169432998 -16.42134285 1.0433750153 -0.058960482478 -18.960449219 2.2653215126e-07
          -0.34414625168 -16.505535126 -0.91986352205 0.8351547122 -15.601922989 0.42162615061
          1.2710514069 -21.481412888 -0.79588407278 9.0072689056 -24.688861847 1.1015150392e-07
          5.0624556541 -21.296205521 0.68164950609 2.8960938454 -21.223333359 0.35312026739
          -0.11682675779 -17.834283829 2.1222824387e-07 -0.11293677986 -9.2720651627 4.0048422534e-07
          1.5879985094 -12.169480324 0.59364664555 15.253951073 -25.303909302 0.31513920426
          5.9794430733 -24.449203491 -0.61665719748 -0.14984492958 -16.74369812 -0.45137542486
          0.3460316062 -12.227108002 -0.27153736353 1.3058050871 -21.433685303 -0.39810425043
          0.84170979261 -18.524940491 0.8517536521 -0.15209470689 -15.482888222 1.1860818863
          0 0 0 0.3145506382 -12.660176277 -0.10890769958
          12.092411995 -24.991256714 0.3138114512 -0.27077871561 -5.6596384048 0.23083174229
          6.0074019432 -24.439832687 -0.31025466323 -0.040302455425 -16.834308624 3.0470167189e-07
          1.3225729465 -21.43315506 1.6950825454e-07 -0.083281055093 -18.962646484 0.48992210627
          6.0151696205 -24.436271667 1.1894844221e-07 0.30114281178 -12.897999763 5.3171294212e-07
          9.0000810623 -24.691534042 0.30985078216 -0.17841739953 -9.1172456741 0.15947322547
          -0.12785796821 -17.869165421 0.52289706469 0.64259094 -14.857542992 0.80031406879
          2.8552672863 -21.250032425 0.70188379288 3.575656414 -24.404769897 -0.66467165947
          15.238435745 -25.304784775 0.63216996193 0 0 0
          1.0818760395 -15.861017227 -0.42474812269 -0.2560299933 -5.4280495644 0.32413440943
          12.074803352 -24.990419388 0.6307027936 -0.14984406531 -16.743700027 0.4513759315
          1.3058050871 -21.433685303 0.39810460806 3.5984315872 -24.368877411 -0.33131489158
          -0.31645306945 -19.733001709 -0.96590459347 1.0326129198 -16.336114883 -0.16656778753
          0.31455019116 -12.660177231 0.10890859365 6.0074019432 -24.439832687 0.31025490165
          -0.25149640441 -19.811502457 -0.51177513599 0.51644587517 -22.05837822 -0.96755379438
          -0.15522432327 -18.666067123 -0.82137775421 16.295339584 -28.47555542 -0.6273624301
          0 0 0 13.1165905 -28.164060593 -0.61440300941
          -0.1351274997 -18.992124557 0.96224707365 -0.26893132925 -8.7804574966 0.39328315854
          8.9757652283 -24.692699432 0.62227451801 -0.097635641694 -18.809932709 -0.43257680535
          0.57249492407 -22.040987015 -0.48022207618 -0.18902221322 -17.851392746 1.0193374157
          16.303972244 -28.482923508 -0.31223624945 0 0 0
          0.99401050806 -16.55185318 3.3567343394e-07 3.6081075668 -24.364284515 1.2487070933e-07
          -0.98732805252 -6.0313072205 -0.081493981183 13.126737595 -28.171974182 -0.3054266572
          -0.78812593222 -6.1515784264 0.035109821707 -0.20814011991 -19.855453491 2.6259547781e-07
          9.9738111496 -27.874076843 -0.59640651941 -0.071505770087 -18.794092178 3.4584442687e-07
          0.60739976168 -22.06036377 2.1327342381e-07 16.309429169 -28.484642029 2.9249097366e-08
          0 0 0 -0.92120653391 -9.4060716629 -0.034751724452
          9.9891042709 -27.877809525 -0.29680815339 13.131114006 -28.172939301 5.1094708908e-08
          -0.344145298 -16.505537033 0.91986387968 1.2710514069 -21.481412888 0.79588449001
          -0.53472864628 -6.2076692581 5.2104002179e-07 -0.67154049873 -9.5038328171 0.043906610459
          5.9794425964 -24.449203491 0.61665743589 0.34602993727 -12.227108955 0.27153789997
          1.1151611805 -18.215393066 -0.23665270209 1.8984507322 -24.595647812 -0.78220182657
          1.0326123238 -16.336114883 0.16656839848 3.5984313488 -24.368877411 0.33131513
          1.2105264664 -18.378484726 -0.15788286924 1.9226640463 -24.541578293 -0.3878056705
          -0.25149613619 -19.811502457 0.51177567244 9.9946880341 -27.877159119 7.4198098332e-08
          -0.5398067832 -9.4031267166 9.3247183486e-07 6.8802018166 -27.626142502 -0.5925797224
          -0.097635306418 -18.809932709 0.4325774014 0.57249498367 -22.040987015 0.48022249341
          16.303972244 -28.482923508 0.31223630905 0 0 0
          -0.90299659967 -11.436997414 0.22527360916 6.8971476555 -27.619005203 -0.29540619254
          13.126737595 -28.171974182 0.30542674661 -0.48338872194 -11.917784691 0.12852670252
          1.2515002489 -18.382339478 2.7162718652e-07 1.9376518726 -24.540269852 1.5273624854e-07
          -0.78812509775 -6.1515789032 -0.035108931363 9.9891042709 -27.877809525 0.2968083024
          6.9039883614 -27.617635727 9.8089202538e-08 -0.1564155668 -12.177647591 4.1697572328e-07
          3.5756559372 -24.404769897 0.66467195749 -0.01366763562 -22.553007126 -0.96915328503
          -0.67154151201 -9.5038328171 -0.043904919177 1.0818744898 -15.861019135 0.42474886775
          0.10963941365 -20.545578003 -0.79240733385 0.05806889385 -22.624052048 -0.48321244121
          -0.31645262241 -19.733001709 0.9659050703 0.15138576925 -20.807409286 -0.39414557815
          1.2105261087 -18.378484726 0.15788343549 1.9226640463 -24.541578293 0.38780596852
          0.51644593477 -22.05837822 0.96755421162 -0.15522408485 -18.666069031 0.82137817144
          0.28293827176 -15.949591637 0.058654569089 4.3288969994 -27.546705246 -0.65730232
          16.295339584 -28.47555542 0.6273624301 0 0 0
          13.1165905 -28.164060593 0.61440312862 0.70053613186 -16.17483902 0.17923633754
          0.10070785135 -22.657762527 2.5533140047e-07 0.72975486517 -19.125614166 -0.17148083448
          1.0506173372 -25.020029068 -0.91878318787 4.3446288109 -27.504339218 -0.32563534379
          -0.98732668161 -6.0313081741 0.081494577229 0.17052967846 -20.910326004 3.0334422263e-07
          6.8971476555 -27.619005203 0.29540640116 -0.48338982463 -11.917785645 -0.12852576375
          1.1053599119 -24.994832993 -0.45572012663 0.90776383877 -19.500135422 -0.13572818041
          9.9738111496 -27.874076843 0.59640669823 0.91590291262 -16.210632324 1.6993418228e-07
          4.3543457985 -27.500780106 9.9501619388e-08 -0.92120856047 -9.4060735703 0.034752864391
          1.1328963041 -25.00230217 1.9470033408e-07 17.35021019 -31.666482925 -0.62865364552
          0 0 0 1.0477126837 -19.630521774 2.5295904038e-07
          17.354297638 -31.681188583 -0.31295832992 0 0 0
          0.058069076389 -22.624052048 0.48321294785 14.13761425 -31.358556747 -0.60637062788
          1.1151608229 -18.215393066 0.23665331304 1.8984507322 -24.595647812 0.7822021842
          -0.9402243495 -6.7147684097 -0.26037344337 0.15138567984 -20.807409286 0.39414614439
          14.142982483 -31.372636795 -0.301687181 0.46275782585 -5.4647135735 0.059783659875
          6.8802013397 -27.626142502 0.59257990122 17.357980728 -31.685245514 -3.9760124082e-08
          0.7005366683 -16.17483902 -0.1792357415 10.941286087 -31.075315475 -0.58291369677
          -0.33157360554 -9.4806251526 0.068429335952 4.344628334 -27.504339218 0.32563555241
          0 0 0 2.5667254925 -27.64604187 -0.77529776096
          0.97883415222 -18.296014786 0.11780700833 -0.90299940109 -11.43699646 -0.2252727896
          1.1577433348 -8.6254844666 0.17077736557 10.951486588 -31.083623886 -0.29022058845
          14.145701408 -31.375770569 -6.9803203218e-09 1.1053597927 -24.994832993 0.45572051406
          1.1363112926 -18.478427887 0.077594690025 2.5888574123 -27.590297699 -0.38395938277
          0.90776377916 -19.500135422 0.13572865725 0.94114106894 -5.0415468216 6.0519562339e-07
          0.31205943227 -23.337884903 -0.72356086969 10.955510139 -31.08502388 2.9975161908e-08
          -0.013667317107 -22.553007126 0.96915382147 1.9134013653 -8.0842933655 7.5296679825e-07
          1.2322063446 -18.484529495 2.0124291211e-07 0.34668430686 -23.505992889 -0.35257506371
          2.6008439064 -27.583744049 1.3421653478e-07 0.10963913798 -20.545578003 0.79240781069
          17.354297638 -31.681188583 0.31295824051 7.7854785919 -30.826086044 -0.57625347376
          0.38318178058 -21.188985825 -0.29087135196 0 0 0
          0.83015525341 -9.9645004272 0.83696949482 0.63066768646 -25.518121719 -0.91677367687
          2.1462309361 -10.635822296 0.5023599267 7.7978067398 -30.822505951 -0.28790932894
          14.142982483 -31.372636795 0.301687181 0.56196898222 -21.498512268 -0.10490953922
          0.69315636158 -25.576253891 -0.44552969933 0.46275621653 -5.4647145271 -0.059782341123
          0.28293940425 -15.949593544 -0.058654192835 4.3288965225 -27.546705246 0.65730255842
          0.33739998937 -23.519224167 2.4869322601e-07 0.72975504398 -19.125614166 0.17148131132
          1.0506173372 -25.020030975 0.91878354549 7.8023095131 -30.823453903 6.9138437198e-08
          10.951486588 -31.083623886 0.29022064805 0.704641819 -21.576555252 2.5442292895e-07
          1.157741785 -8.6254844666 -0.17077642679 2.4439864159 -10.775707245 7.9000955111e-07
          1.1363115311 -18.478427887 -0.077594198287 2.5888574123 -27.590299606 0.3839596808
          0.70380795002 -25.572687149 2.4890914574e-07 1.6857472658 -27.975629807 -0.87828016281
          1.2266069651 -19.024497986 0.22333280742 1.7291636467 -27.956678391 -0.43348172307
          1.3092775345 -19.4342556 0.13142715394 17.35021019 -31.666482925 0.62865352631
          0 0 0 0.34668436646 -23.505992889 0.35257557034
          1.8657292128 -14.607967377 1.3772882223 5.141412735 -30.688009262 -0.65520441532
          1.8563783169 -14.385077477 0.73082762957 14.13761425 -31.358556747 0.60637056828
          -0.94022631645 -6.7147707939 0.26037549973 5.1573953629 -30.648445129 -0.32366633415
          7.7978067398 -30.822505951 0.28790944815 0.56196922064 -21.498512268 0.10491004586
          2.1462299824 -10.635822296 -0.50235873461 0.69315648079 -25.576253891 0.44553020597
          1.7387892008 -27.948451996 1.7354584259e-07 1.3479281664 -19.596942902 2.3350922618e-07
          10.941286087 -31.075315475 0.58291369677 -0.33157336712 -9.4806232452 -0.068429477513
          2.5667254925 -27.64604187 0.77529811859 1.8836241961 -14.277112961 2.1524147087e-07
          0.97883397341 -18.296014786 -0.11780644953 5.1678309441 -30.648164749 8.76947297e-08
          18.406711578 -34.893115997 -0.63339400291 0 0 0
          0.31205940247 -23.337884903 0.72356146574 1.7291637659 -27.956678391 0.4334820807
          0 0 0 15.146167755 -34.585945129 -0.602630198
          0.41998371482 -23.835706711 -0.25364586711 1.3092775345 -19.4342556 -0.13142669201
          1.0918884277 -2.6274132729 -0.3850902915 0.45235913992 -25.987794876 -0.59888696671
          18.40813446 -34.914653778 -0.3156850338 7.7854781151 -30.826086044 0.57625359297
          15.149075508 -34.606349945 -0.30021703243 1.0733090639 -3.0912103653 -0.23456837237
          0.38318231702 -21.188985825 0.29087182879 0.50579804182 -24.047395706 -0.10653287172
          0.83015954494 -9.9644975662 -0.83696830273 3.3618056774 -30.676416397 -0.76590162516
          1.8563770056 -14.385080338 -0.73082721233 0.63066780567 -25.518121719 0.91677415371
          1.7447917461 -17.374134064 0.87871736288 5.1573953629 -30.648445129 0.32366651297
          0.49252536893 -26.142044067 -0.31229886413 1.5439652205 -17.64222908 0.43637418747
          3.3866062164 -30.640630722 -0.380723387 11.891205788 -34.30405426 -0.57259631157
          18.410825729 -34.921089172 -1.338357265e-07 2.2245850563 -7.0207576752 1.250770092
          0 0 0 11.900061607 -34.318351746 -0.28549009562
          2.0279493332 -6.5731015205 0.63667023182 15.150874138 -34.611839294 -8.711779742e-08
          1.234408021 -28.347845078 -0.76671737432 0.56309938431 -24.049383163 3.1449121707e-07
          0.48365524411 -26.14140892 2.9710798799e-07 1.2057931423 -21.571214676 0.28825691342
          1.1006948948 -3.1821274757 1.7328137858e-07 1.3004616499 -28.441194534 -0.39248764515
          3.3939263821 -30.637895584 1.3928806197e-07 1.2450352907 -21.659042358 0.16166509688
          1.4730705023 -17.711488724 6.2894528696e-08 1.685747385 -27.975629807 0.87828058004
          11.903252602 -34.32220459 -3.3738491112e-08 1.2266064882 -19.024499893 -0.22333239019
          1.9901756048 -6.4549498558 3.9499906279e-07 8.6708688736 -34.053268433 -0.55921494961
          18.40813446 -34.914653778 0.31568473577 1.3106783628 -28.449546814 2.5067967613e-07
          2.3956768513 -8.9752655029 1.1070016623 1.8657295704 -14.607969284 -1.3772877455
          1.2734810114 -21.623113632 2.5286419714e-07 5.1414122581 -30.688009262 0.65520465374
          0 0 0 8.682847023 -34.056247711 -0.28005439043
          1.9769300222 -9.7802677155 0.53114575148 15.149075508 -34.606349945 0.30021685362
          0.50579810143 -24.047395706 0.10653348267 0.49252548814 -26.142044067 0.31229940057
          1.0733093023 -3.09120965 0.23456884921 3.3866062164 -30.640630722 0.38072368503
          1.543964982 -17.64222908 -0.43637391925 11.900061607 -34.318351746 0.28549003601
          8.6862258911 -34.060035706 2.4538813648e-08 2.3750708103 -30.796350479 -0.79698586464
          1.7809432745 -18.717884064 0.59678572416 1.9072275162 -9.9984359741 7.6096227986e-07
          2.0279505253 -6.5730996132 -0.63666939735 1.5994298458 -19.067710876 0.30960261822
          1.3004616499 -28.441194534 0.39248812199 2.4221863747 -30.818477631 -0.40086120367
          1.2450351715 -21.659042358 -0.16166460514 6.0706248283 -33.888183594 -0.65083527565
          18.406711578 -34.893115997 0.63339370489 0 0 0
          1.7847303152 -13.052977562 1.3592922688 6.0910201073 -33.859031677 -0.31884995103
          15.146166801 -34.585945129 0.60262995958 1.7798178196 -12.930314064 0.61302292347
          0.41998392344 -23.835706711 0.25364637375 2.4334893227 -30.822547913 1.727801191e-07