<?xml version="1.0"?>
<VTKFile type="UnstructuredGrid" version="0.1" byte_order="LittleEndian" header_type="UInt32" compressor="vtkZLibDataCompressor">
  <UnstructuredGrid>
    <Piece NumberOfPoints="6405" NumberOfCells="4800">
      <PointData>
        <DataArray type="Float32" Name="DISPLACEMENT" NumberOfComponents="3" ComponentName0="X-DISPLACEMENT" ComponentName1="Y-DISPLACEMENT" ComponentName2="Z-DISPLACEMENT" format="ascii" RangeMin="0" RangeMax="265.31130121">
          0 0 0 0 0 0
          2.2206287384 -1.3107506037 -1.026271224 0 0 0
          1.4115161896 -0.74304658175 -0.77108252048 0 0 0
          2.0294010639 -1.4623211622 -0.4069981277 1.2272628546 -0.86996328831 -0.31353318691
          0 0 0 4.0094528198 -2.4826877117 -1.0562323332
          0 0 0 3.9519805908 -2.6596269608 -0.54271000624
          2.839703083 -2.034995079 -0.8596932888 0 0 0
          0 0 0 2.0374424458 -1.511010766 1.1235578512e-07
          0.96697324514 -0.46367007494 -0.55117112398 1.221909523 -0.89254367352 3.8919271361e-08
          2.7767994404 -2.1761710644 -0.43829736114 0.82726371288 -0.57738041878 -0.22374233603
          3.9080336094 -2.7083437443 2.7704095373e-07 1.9577503204 -1.6727164984 -0.65501958132
          0 0 0 2.7396597862 -2.2210650444 1.3700554291e-07
          1.8861461878 -1.7997852564 -0.33598425984 0 0 0
          5.6247873306 -4.0349974632 -0.98744398355 0 0 0
          0.82161086798 -0.59265720844 -5.0941839191e-08 0 0 0
          0 0 0 2.0294010639 -1.462321043 0.40699836612
          4.1749958992 -3.6104180813 -0.82860690355 5.6421041489 -4.1617331505 -0.50285661221
          0.46361583471 -0.28250461817 -0.3244638741 1.2272628546 -0.8699631691 0.31353327632
          4.1879611015 -3.7285645008 -0.42174258828 0.33386844397 -0.39748340845 -0.14702582359
          1.8552106619 -1.8368102312 -2.5540657589e-08 3.9519808292 -2.6596267223 0.54271060228
          0 0 0 0 0 0
          1.0366262197 -1.4465246201 -0.47475132346 2.9903962612 -3.2832117081 -0.67659705877
          5.6270833015 -4.207005024 5.0212099723e-07 2.7767996788 -2.176170826 0.43829762936
          2.9772911072 -3.3921251297 -0.34561672807 0.82726377249 -0.57738029957 0.22374226153
          4.1782503128 -3.767783165 2.9277578051e-07 0.96168023348 -1.5593996048 -0.24864643812
          0.3138679266 -0.40867966413 -1.6437098793e-07 0 0 0
          7.1062316895 -5.8031182289 -0.87611556053 0 0 0
          5.446723938 -5.4124336243 -0.76292556524 1.8861464262 -1.7997848988 0.33598423004
          7.1485323906 -5.8916816711 -0.44348680973 2.2206287384 -1.3107503653 1.0262714624
          0 0 0 0 0 0
          0.93821179867 -1.595092535 -2.1375248593e-07 2.9652929306 -3.4287793636 6.4454027893e-08
          0.12170772254 -0.33408737183 -0.19985100627 5.4834413528 -5.4999399185 -0.38528007269
          1.4115163088 -0.74304628372 0.7710826993 1.8129042387 -3.0146143436 -0.54818892479
          0 0 0 5.6421041489 -4.1617326736 0.50285762548
          0.061328206211 -0.44143044949 -0.099812172353 1.7995535135 -3.1188671589 -0.27236679196
          4.1879615784 -3.728564024 0.42174318433 0.33386868238 -0.39748322964 0.14702554047
          4.0197443962 -5.0840573311 -0.65285944939 0.291043818 -1.3444197178 -0.29335531592
          7.148440361 -5.9226570129 7.7813598409e-07 4.0094532967 -2.4826872349 1.0562330484
          0 0 0 0 0 0
          4.0341506004 -5.171860218 -0.32863900065 2.8397035599 -2.0349943638 0.85969364643
          5.4882845879 -5.5306544304 5.0581297728e-07 0.26614367962 -1.4621002674 -0.16461092234
          0.96697336435 -0.46366977692 0.55117112398 0.074117653072 -0.48355290294 -3.8899139554e-07
          1.7969700098 -3.1537456512 -1.9067294943e-07 2.977291584 -3.3921246529 0.34561684728
          0.96168065071 -1.5593992472 0.24864603579 4.0342588425 -5.2011098862 2.1686710738e-07
          1.9577506781 -1.6727157831 0.65501958132 0.28628960252 -1.5039902925 -4.4290064238e-07
          2.7527830601 -4.8208436966 -0.52968579531 7.1485323906 -5.8916811943 0.44348838925
          5.6247878075 -4.0349969864 0.98744505644 0 0 0
          8.4473676682 -7.7245979309 -0.77771866322 0 0 0
          0 0 0 0.71485340595 -2.7988433838 -0.37573301792
          2.7492444515 -4.913977623 -0.26156550646 8.4898328781 -7.7829909325 -0.39132741094
          6.640191555 -7.3647155762 -0.70140582323 5.4834418297 -5.4999394417 0.38528108597
          0.0048691062257 -0.36218997836 -0.074760474265 0 0 0
          4.174996376 -3.6104171276 0.8286075592 0.46361613274 -0.28250423074 0.32446366549
          0.71961611509 -2.9160077572 -0.1849668771 0.061328630894 -0.44143027067 0.099811471999
          -0.033909920603 -0.46973901987 -0.042617406696 1.7995539904 -3.1188664436 0.27236640453
          6.6772413254 -7.4265475273 -0.35195600986 4.0341506004 -5.1718597412 0.32863944769
          2.7425961494 -4.9386339188 -1.1245194997e-07 8.4955654144 -7.8041238785 1.1076201645e-06
          0.37840929627 -1.6192399263 -0.40688556433 0.26614412665 -1.4620999098 0.16461004317
          0 0 0 5.0621519089 -7.0440254211 -0.61845070124
          1.0366266966 -1.4465239048 0.47475093603 2.9903969765 -3.2832107544 0.67659723759
          0.73532485962 -2.9545860291 -4.8357975402e-07 6.6865372658 -7.4482140541 7.7964642742e-07
          0.047099817544 -0.56619518995 -2.1221961788e-07 0.33397507668 -1.6702945232 -0.15233248472
          5.0776247978 -7.1103587151 -0.310967803 7.1062326431 -5.8031172752 0.87611716986
          0 0 0 1.3663059473 -4.6466069221 -0.35018742085
          5.4467248917 -5.4124326706 0.76292663813 0.37150666118 -1.7243630886 -4.5122155257e-07
          1.3429800272 -4.7513346672 -0.18593804538 5.0820431709 -7.1321659088 4.2979678483e-07
          0.12170810997 -0.33408683538 0.19985041022 2.7492449284 -4.9139771461 0.26156529784
          3.5683383942 -6.7605090141 -0.51823854446 8.4898338318 -7.7829904556 0.39132964611
          0.74167633057 -3.0197956562 -0.43173110485 1.812904954 -3.0146131516 0.54818856716
          0 0 0 0.71961653233 -2.9160072803 0.18496589363
          3.5540969372 -6.8336486816 -0.26364934444 -0.033909719437 -0.46973890066 0.042617019266
          0.72080081701 -3.0649542809 -0.19480091333 6.6772418022 -7.4265465736 0.35195758939
          4.0197453499 -5.0840563774 0.65285992622 0.29104441404 -1.3444188833 0.29335442185
          9.6540288925 -9.7370662689 -0.70133811235 0 0 0
          1.3288408518 -4.7722291946 -5.0100538829e-07 7.7501029968 -9.414557457 -0.65452986956
          9.6887311935 -9.7744235992 -0.35246837139 0 0 0
          0.27767980099 -0.74037504196 -0.27194353938 7.7805981636 -9.4553565979 -0.32743263245
          3.5523970127 -6.8547739983 4.6923140928e-08 0.20692081749 -0.75734472275 -0.084432929754
          0.33397519588 -1.6702941656 0.15233157575 0.71298694611 -3.0969133377 -6.0598057416e-07
          5.0776252747 -7.1103577614 0.31096866727 6.0323929787 -9.1509561539 -0.60715687275
          0.42913880944 -1.7944968939 -0.31572633982 9.6958265305 -9.7887001038 1.4974477835e-06
          0 0 0 0.38766649365 -1.8429967165 -0.15829545259
          6.0457406044 -9.1935443878 -0.30332192779 7.789855957 -9.4709157944 1.1215886389e-06
          0.19688308239 -0.7879024744 -2.0028524261e-07 2.7527837753 -4.8208422661 0.52968555689
          1.8243666887 -6.5505928993 -0.39483955503 8.4473695755 -7.7245965004 0.7777209878
          0 0 0 1.1396099329 -4.7265706062 -0.43121063709
          1.3429803848 -4.7513337135 0.18593706191 0.714854002 -2.7988421917 0.37573200464
          6.6401929855 -7.3647146225 0.70140743256 0.0048690475523 -0.36218994856 0.074760332704
          1.1326572895 -4.7699446678 -0.20029748976 1.7941746712 -6.6332378387 -0.2144960463
          3.5540976524 -6.833647728 0.26364943385 0.72080099583 -3.0649540424 0.19479973614
          6.0521116257 -9.209397316 7.2087038916e-07 0.37579640746 -1.8663394451 -3.9896073645e-07
          4.4210548401 -8.9654750824 -0.55525159836 0.67432337999 -3.1864953041 -0.36516913772
          0.37840920687 -1.6192393303 0.40688478947 9.6887321472 -9.7744226456 0.35247138143
          5.0621528625 -7.0440239906 0.61845159531 0 0 0
          1.7999447584 -6.6553049088 -3.6434684603e-07 1.1307317019 -4.8023319244 -6.7958740146e-07
          4.4131231308 -9.0014944077 -0.28223580122 7.7805986404 -9.4553565979 0.32743489742
          0.65639936924 -3.2369396687 -0.18274334073 0.2069208473 -0.75734466314 0.084432579577
          1.3663066626 -4.6466054916 0.35018649697 4.4177589417 -9.0198163986 2.8778984529e-07
          6.0457415581 -9.1935434341 0.3033233881 0.38766655326 -1.8429965973 0.15829469264
          0.65213656425 -3.2544522285 -5.613478038e-07 10.753334045 -11.784433365 -0.64975941181
          0 0 0 10.779416084 -11.810973167 -0.32623174787
          3.5683393478 -6.7605075836 0.51823872328 8.7741832733 -11.490826607 -0.61792302132
          0.74167650938 -3.0197951794 0.43173015118 1.6660039425 -6.5985836983 -0.45698907971
          0.23553194106 -0.87539881468 -0.20157845318 1.1326575279 -4.7699437141 0.20029619336
          1.794175148 -6.6332373619 0.21449534595 0 0 0
          8.7989788055 -11.520056725 -0.30867448449 1.6596611738 -6.6425170898 -0.21829938889
          0.1785954982 -0.90638893843 -0.086735129356 2.5692474842 -8.7233753204 -0.56756526232
          0.97652947903 -4.8047175407 -0.36705413461 9.6540298462 -9.7370653152 0.7013412118
          0 0 0 7.7501044273 -9.4145555496 0.65453219414
          10.786468506 -11.821570396 1.9546121166e-06 0.97373789549 -4.8580141068 -0.18628367782
          2.5524764061 -8.7345266342 -0.26838672161 0.27767974138 -0.74037498236 0.27194318175
          6.9257516861 -11.266615868 -0.58878606558 0.40394085646 -1.9709810019 -0.26300787926
          0 0 0 4.4131236076 -9.001493454 0.28223639727
          0.65639948845 -3.2369394302 0.18274226785 8.8068199158 -11.531845093 1.5371415429e-06
          1.6610735655 -6.6637120247 -6.9499941446e-07 6.9460878372 -11.295153618 -0.29485532641
          0.36825588346 -2.0166430473 -0.13176219165 0.17656339705 -0.91076749563 -1.4510013102e-07
          6.0323944092 -9.1509542465 0.60715842247 0.42913877964 -1.7944967747 0.31572571397
          2.5655555725 -8.7530603409 -1.6187844665e-07 0.9712100029 -4.8739204407 -6.8367751282e-07
          1.8243677616 -6.550590992 0.39483892918 6.9520726204 -11.308981895 1.0927516314e-06
          0.35540312529 -2.0311501026 -2.9137544288e-07 1.1396102905 -4.7265696526 0.43120962381
          10.779417038 -11.810973167 0.32623565197 5.1747016907 -11.144373894 -0.5793517828
          0 0 0 0.56953459978 -3.3167989254 -0.28008559346
          5.193713665 -11.173484802 -0.28915551305 8.7989797592 -11.520055771 0.30867758393
          0.17859552801 -0.90638893843 0.086734853685 1.6596615314 -6.6425161362 0.21829809248
          0.55710220337 -3.37322855 -0.14337198436 4.4210562706 -8.9654741287 0.55525225401
          2.2264752388 -8.5972719193 -0.4957382977 2.5524771214 -8.7345256805 0.26838642359
          0.67432337999 -3.1864950657 0.36516821384 0.9737380743 -4.8580141068 0.18628238142
          1.312428236 -6.616464138 -0.35840222239 2.2511644363 -8.6504878998 -0.22816847265
          5.1983532906 -11.192303658 6.1714393951e-07 6.9460887909 -11.295152664 0.29485753179
          0.36825591326 -2.0166430473 0.13176164031 1.3210992813 -6.676651001 -0.18364530802
          0.55061811209 -3.3899538517 -4.2658490429e-07 11.791214943 -13.841080666 -0.61975836754
          0 0 0 0.17974628508 -0.94356709719 -0.14675879478
          2.2429070473 -8.6651096344 -6.7294394057e-07 3.6871082783 -11.061870575 -0.57891303301
          9.7453012466 -13.550548553 -0.58792740107 10.753334999 -11.784432411 0.64976340532
          0 0 0 0 0 0
          1.3230516911 -6.6922020912 -7.7818725686e-07 0.7694684267 -4.90097332 -0.27974396944
          11.808953285 -13.866292953 -0.31055361032 3.7172031403 -11.111789703 -0.26247745752
          9.7643709183 -13.579325676 -0.29313096404 8.7741851807 -11.490824699 0.61792618036
          0.13895104825 -0.97793024778 -0.0609604083 1.6660046577 -6.5985827446 0.45698809624
          0.23553186655 -0.87539887428 0.20157821476 0.77116405964 -4.9606995583 -0.14261558652
          5.1937146187 -11.173483849 0.28915676475 0.55710226297 -3.37322855 0.1433711648
          7.7674503326 -13.318323135 -0.54923295975 2.5692489147 -8.7233734131 0.5675650239
          0.97652965784 -4.8047170639 0.36705306172 0 0 0
          0.30844646692 -2.0785551071 -0.18563812971 11.815113068 -13.875900269 2.4857265544e-06
          0.13667318225 -0.98553586006 -7.7674577881e-08 3.7166337967 -11.122209549 8.1736658331e-08
          7.7908411026 -13.350225449 -0.27542847395 6.9257531166 -11.26661396 0.58878833055
          9.7701044083 -13.589838028 2.0288232463e-06 0.40394079685 -1.9709811211 0.26300740242
          0.7702383399 -4.978331089 -5.4775824765e-07 0.28458181024 -2.1270165443 -0.095372125506
          2.2511651516 -8.6504869461 0.22816720605 1.3210995197 -6.6766505241 0.1836438477
          1.642206192 -8.6653709412 -0.32941785455 7.7959551811 -13.362065315 1.5451108766e-06
          0.27508372068 -2.1406357288 -1.4967029927e-07 1.6544908285 -8.7344694138 -0.15944939852
          5.9266724586 -13.149627686 -0.51034283638 0 0 0
          0.43200233579 -3.4257104397 -0.19781319797 11.808954239 -13.866292953 0.31055858731
          0.13895106316 -0.97793030739 0.060960266739 3.7172040939 -11.11178875 0.26247766614
          5.9593520164 -13.188934326 -0.25590893626 5.1747031212 -11.144371986 0.5793530941
          9.7643728256 -13.579324722 0.29313504696 2.8090867996 -11.197369576 -0.2717602551
          0.98411720991 -6.700448513 -0.26497966051 0.56953454018 -3.3167991638 0.28008490801
          0.42429339886 -3.4818706512 -0.10121384263 0.77116411924 -4.9606995583 0.14261452854
          2.8242678642 -11.3198843 -0.17780163884 0.99482923746 -6.7619895935 -0.13262289762
          1.6493486166 -8.7495861053 -8.6673600208e-07 2.2264764309 -8.5972709656 0.49573749304
          7.7908420563 -13.350224495 0.27543157339 1.3124287128 -6.6164636612 0.3584010005
          5.961274147 -13.202054977 1.0328674307e-06 0.28458184004 -2.1270165443 0.095371834934
          0.41977256536 -3.498803854 -2.2248492826e-07 2.8242576122 -11.319290161 -5.1274543011e-07
          0.99566334486 -6.7809944153 -6.6846155278e-07 0.56491482258 -4.993956089 -0.19419004023
          4.4021263123 -13.007628441 -0.4317843318 11.79121685 -13.841078758 0.61976343393
          0 0 0 1.6544914246 -8.7344694138 0.15944778919
          0.17974625528 -0.943567276 0.14675869048 0.56753671169 -5.052529335 -0.098647862673
          3.6871101856 -11.061867714 0.57891327143 9.745303154 -13.550546646 0.58793157339
          4.4249095917 -13.067704201 -0.22401472926 12.80827713 -15.925133705 -0.60617119074
          0 0 0 0.76946848631 -4.90097332 0.27974310517
          12.818132401 -15.953339577 -0.30233725905 0.11390411109 -0.98475092649 -0.090951129794
          10.702313423 -15.62845993 -0.56570732594 5.9593529701 -13.188932419 0.25591102242
          0 0 0 0.42429342866 -3.4818706512 0.10121341795
          10.712727547 -15.660377502 -0.28276056051 0.089060977101 -1.0184502602 -0.037747293711
          2.8242690563 -11.319883347 0.17780062556 0.99482941628 -6.7619891167 0.13262163103
          7.76745224 -13.318321228 0.5492361784 0.56688332558 -5.0709905624 -2.9972943594e-07
          4.4241895676 -13.079836845 4.9657887757e-07 0.30844643712 -2.078555584 0.18563789129
          2.0252699852 -10.945028305 -0.23450112343 0.19798840582 -2.1430487633 -0.1134961769
          8.6055927277 -15.349578857 -0.51749312878 1.2135421038 -8.7064027786 -0.23218801618
          12.822034836 -15.962756157 3.09297684e-06 0 0 0
          2.0060122013 -11.016810417 -0.15521337092 10.716140747 -15.671003342 2.5973824904e-06
          0.087914451957 -1.0262624025 6.3863003774e-09 8.6191129684 -15.389163971 -0.25610014796
          0.1845292151 -2.1905498505 -0.05796046555 1.2262583971 -8.7696237564 -0.11657392979
          1.6422069073 -8.6653699875 0.32941651344 2.0319275856 -11.039619446 -9.1922004231e-07
          0.70783549547 -6.7762470245 -0.18176357448 0.5675367713 -5.0525298119 0.098647296429
          2.8597459793 -12.8256464 -0.32559221983 8.6226577759 -15.399198532 2.0751313059e-06
          5.926674366 -13.149625778 0.51034498215 4.4249110222 -13.067703247 0.22401574254
          1.228158474 -8.7878227234 -7.9853697343e-07 0.17905081809 -2.2047951221 2.31152395e-08
          0.43200233579 -3.4257106781 0.19781285524 12.818133354 -15.953338623 0.30234345794
          6.5975627899 -15.189312935 -0.43614038825 0.71682089567 -6.8331942558 -0.091418027878
          0.27956575155 -3.4934914112 -0.11859574914 2.8583438396 -12.894013405 -0.17955067754
          2.8090889454 -11.197367668 0.27175927162 0.98411738873 -6.700448513 0.26497858763
          0 0 0 0.27620342374 -3.5483572483 -0.060679808259
          10.7127285 -15.660376549 0.28276577592 0.089060999453 -1.0184503794 0.037747312337
          6.6164474487 -15.228598595 -0.22269648314 0.71858465672 -6.8516874313 -3.940836848e-07
          2.8768846989 -12.912510872 -3.0646365445e-08 2.0060129166 -11.016809464 0.15521152318
          6.6187729836 -15.239990234 1.5301251324e-06 0.27375251055 -3.5653862953 3.6753746713e-08
          8.6191139221 -15.389163017 0.25610432029 0.1845292449 -2.1905498505 0.057960517704
          1.2262587547 -8.7696237564 0.11657240987 0.56491488218 -4.9939565659 0.19418957829
          4.4021282196 -13.007626534 0.43178537488 4.9175653458 -15.182091713 -0.41120550036
          12.808279037 -15.925131798 0.60617744923 0 0 0
          0.3688352406 -5.0537343025 -0.11560522765 0.11390415579 -0.98475116491 0.090951167047
          10.702315331 -15.628458023 0.56571263075 0.71682101488 -6.8331942558 0.09141728282
          2.8583450317 -12.894012451 0.17955061793 4.9308381081 -15.209299088 -0.2054527849
          1.4678559303 -10.882176399 -0.22350098193 0.37062841654 -5.1102247238 -0.058705732226
          0.27620348334 -3.5483574867 0.06067988649 6.6164484024 -15.228596687 0.22269956768
          1.481500864 -10.933362007 -0.10677224398 2.3764121532 -13.315093994 -0.65862524509
          0.85543859005 -8.7500915527 -0.16194863617 13.819882393 -18.072343826 -0.59896296263
          0 0 0 11.64950943 -17.776712418 -0.55966639519
          2.0252711773 -10.945027351 0.23449979722 0.19798848033 -2.1430490017 0.1134962514
          8.6055955887 -15.34957695 0.51749736071 0.86958366632 -8.8015384674 -0.080115430057
          2.4602627754 -13.264288902 -0.22311127186 1.2135425806 -8.706401825 0.23218676448
          13.82335186 -18.100141525 -0.29865819216 0 0 0
          0.37056356668 -5.1286230087 3.3296942092e-08 4.9339728355 -15.227766037 9.7229008134e-07
          0.047507990152 -1.00847435 -0.03951208666 11.651667595 -17.807125092 -0.27938127518
          0.038096375763 -1.0399612188 -0.016183013096 1.4771558046 -10.957627296 -9.8497366707e-07
          9.4975214005 -17.492132187 -0.51237589121 0.87129175663 -8.820599556 -5.149575486e-07
          2.4464640617 -13.295604706 -1.6575730797e-06 13.824399948 -18.109260559 3.7772967971e-06
          0 0 0 0.082598716021 -2.1732983589 -0.04542940855
          9.4925336838 -17.529079437 -0.25460714102 11.653058052 -17.816884995 3.2410314361e-06
          0.70783561468 -6.7762475014 0.18176296353 2.8597481251 -12.825644493 0.32559216022
          0.038018964231 -1.0475667715 9.7173590063e-08 0.079959914088 -2.2188224792 -0.02309115231
          6.5975651741 -15.189311028 0.4361435473 0.27956581116 -3.493491888 0.11859585345
          0.46368938684 -6.8247919083 -0.11009827256 3.5716338158 -15.243601799 -0.45605799556
          0.37062844634 -5.1102247238 0.058705810457 4.9308395386 -15.209298134 0.20545476675
          0.46818080544 -6.8777809143 -0.055728442967 3.5839793682 -15.268458366 -0.19557541609
          1.4815014601 -10.933362007 0.10677041858 9.4942159653 -17.537866592 2.6784136935e-06
          0.078400842845 -2.2327153683 2.1451157295e-07 7.1356511116 -17.228401184 -0.42820703983
          0.86958390474 -8.8015375137 0.080114461482 2.4602642059 -13.264287949 0.22310861945
          13.823352814 -18.100141525 0.29866576195 0 0 0
          0.12365297228 -3.516415596 -0.042601328343 7.1376934052 -17.269187927 -0.21878884733
          11.651668549 -17.807123184 0.27938777208 0.12521386147 -3.5707480907 -0.021773450077
          0.46943059564 -6.8962888718 -2.502922869e-10 3.5881118774 -15.278223038 3.8895157672e-07
          0.03809640184 -1.0399612188 0.016183206812 9.4925346375 -17.529079437 0.25461250544
          7.1437821388 -17.277257919 2.1049402221e-06 0.12511630356 -3.5878105164 3.2768582514e-07
          4.9175677299 -15.182089806 0.41120755672 1.7789703608 -13.07768631 -0.16224656999
          0.079959958792 -2.2188227177 0.023091582581 0.36883530021 -5.0537347794 0.11560533941
          1.0055114031 -10.860313416 -0.12661455572 1.7427641153 -13.184081078 -0.12591148913
          1.467856884 -10.882175446 0.22349949181 1.0166546106 -10.914909363 -0.066211231053
          0.46818086505 -6.8777813911 0.055728457868 3.5839805603 -15.268457413 0.19557623565
          2.3764147758 -13.315091133 0.65862333775 0.85543876886 -8.7500915527 0.16194783151
          0.17599323392 -5.0662064552 -0.039102599025 5.3088736534 -17.174341202 -0.36326557398
          13.819885254 -18.072341919 0.59897059202 0 0 0
          11.649512291 -17.77671051 0.5596729517 0.17709213495 -5.1236186028 -0.020093735307
          1.7540669441 -13.167086601 -9.3827873116e-07 0.55773532391 -8.7829351425 -0.10181449354
          2.7649421692 -15.429450989 -0.2820495069 5.325170517 -17.190439224 -0.19154772162
          0.047508127987 -1.0084745884 0.039512302727 1.0205541849 -10.932685852 -6.310694971e-07
          7.1376948357 -17.269187927 0.21879307926 0.12521390617 -3.5707480907 0.021774098277
          2.7648222446 -15.489848137 -0.166474998 0.56472659111 -8.829205513 -0.052036922425
          9.4975242615 -17.49213028 0.51238131523 0.17756693065 -5.1423845291 4.1669773054e-07
          5.327152729 -17.199796677 1.4891816136e-06 0.082598894835 -2.1732985973 0.045429836959
          2.7578303814 -15.482255936 -2.2348405082e-07 14.815476418 -20.287223816 -0.59365397692
          0 0 0 0.56753927469 -8.8470125198 -6.9237955813e-08
          14.815659523 -20.310577393 -0.29679772258 0 0 0
          1.742765069 -13.184081078 0.12590961158 12.592606544 -20.000452042 -0.56372320652
          0.46368941665 -6.8247923851 0.11009832472 3.5716362 -15.243599892 0.45605891943
          -0.014199194498 -1.0215446949 0.0068689282052 1.0166549683 -10.914909363 0.06621003896
          12.590705872 -20.024467468 -0.28082475066 -0.0087746987119 -1.0490953922 0.0031922773924
          7.1356534958 -17.228399277 0.42821136117 14.815002441 -20.318704605 4.5383862926e-06
          0.17709214985 -5.1236186028 0.020094553009 10.356754303 -19.744152069 -0.53149658442
          -0.028594300151 -2.1751234531 0.019136831164 5.3251714706 -17.190437317 0.19155074656
          0 0 0 4.1501927376 -17.082706451 -0.36416995525
          0.23419046402 -6.8316450119 -0.041702985764 0.12365313619 -3.5164160728 0.042601950467
          -0.018773829564 -2.2175731659 0.0099485805258 10.347459793 -19.765003204 -0.26564067602
          12.590488434 -20.032485962 3.9579890654e-06 2.7648236752 -15.489847183 0.16647462547
          0.23299831152 -6.887046814 -0.021900171414 4.1506977081 -17.104003906 -0.18902425468
          0.56472671032 -8.829205513 0.052036806941 -0.0076212105341 -1.0558953285 1.9310520827e-07
          1.1112709045 -13.085173607 -0.10373223573 10.347127914 -19.774457932 3.3547992189e-06
          1.7789716721 -13.077685356 0.16224521399 -0.015983149409 -2.2303617001 4.1049895572e-07
          0.23407945037 -6.9063363075 4.6530612963e-07 1.1356328726 -13.144443512 -0.044054858387
          4.1490712166 -17.112768173 9.4961541208e-07 1.0055118799 -10.860313416 0.12661361694
          14.815660477 -20.310575485 0.29680681229 8.0875110626 -19.481151581 -0.53098940849
          0.64282643795 -10.884773254 -0.08906982094 0 0 0
          -0.031104298308 -3.4949982166 0.033973246813 2.0875515938 -15.726117134 -0.38168683648
          -0.021641783416 -3.549926281 0.017485421151 8.07396698 -19.496774673 -0.25288444757
          12.590706825 -20.024465561 0.28083270788 0.65714043379 -10.923726082 -0.044710833579
          2.0499641895 -15.700196266 -0.18410380185 -0.0087746698409 -1.0490955114 -0.0031919050962
          0.17599332333 -5.0662069321 0.03910337761 5.3088760376 -17.174339294 0.36326873302
          1.1267567873 -13.167519569 -7.2048470656e-07 0.55773538351 -8.7829351425 0.10181444138
          2.7649450302 -15.429449081 0.28204923868 8.0770521164 -19.505844116 2.7363562367e-06
          10.347460747 -19.765003204 0.26564741135 0.66078132391 -10.944069862 -1.6837498151e-07
          -0.01877376996 -2.2175734043 -0.0099477712065 -0.018638310954 -3.5667653084 6.2126167677e-07
          0.23299829662 -6.887046814 0.02190108411 4.1506991386 -17.104003906 0.18902619183
          2.0779371262 -15.726881981 -6.9496275046e-07 2.8660969734 -16.934633255 -0.33011108637
          0.29076462984 -8.7922801971 -0.05062347278 2.8560357094 -16.963682175 -0.17511869967
          0.28939935565 -8.8412237167 -0.028284911066 14.815479279 -20.287221909 0.59366309643
          0 0 0 1.1356334686 -13.144442558 0.044053539634
          -0.019569708034 -5.0259428024 0.04220706597 5.822414875 -18.996711731 -0.37985125184
          -0.01608607173 -5.0887136459 0.020969165489 12.592609406 -20.000450134 0.56373119354
          -0.014198972844 -1.0215449333 -0.0068685370497 5.8192830086 -18.996692657 -0.19568815827
          8.0739688873 -19.496772766 0.252889961 0.6571406126 -10.923726082 0.044710531831
          -0.021641738713 -3.5499265194 -0.017484202981 2.0499653816 -15.700195312 0.18410231173
          2.8658092022 -16.976247787 4.4820365019e-07 0.29187253118 -8.8614282608 4.6082519134e-07
          10.356757164 -19.744150162 0.53150337934 -0.028594011441 -2.17512393 -0.019136052579
          4.1501951218 -17.082704544 0.36417198181 -0.014045807533 -5.1087360382 8.0310303474e-07
          0.23419044912 -6.8316454887 0.04170384258 5.8279891014 -19.010929108 2.0920697352e-06
          15.797785759 -22.546867371 -0.59055787325 0 0 0
          1.1112718582 -13.085173607 0.10373116285 2.8560373783 -16.963680267 0.17511960864
          0 0 0 13.525619507 -22.26325798 -0.56551116705
          0.73808336258 -13.065213203 -0.058339931071 0.28939929605 -8.8412237167 0.028285808861
          -0.058427963406 -1.0258791447 0.043863553554 1.2019805908 -15.329349518 0.036760039628
          15.796971321 -22.566246033 -0.29546102881 8.0875139236 -19.481147766 0.53099501133
          13.524033546 -22.282087326 -0.28289237618 -0.038585282862 -1.0455728769 0.018612938002
          0.64282661676 -10.884773254 0.089069627225 0.75414282084 -13.100410461 -0.033235184848
          -0.031104050577 -3.4949986935 -0.033972106874 4.6205468178 -18.94871521 -0.41458073258
          -0.016086084768 -5.0887136459 -0.020967600867 2.0875537395 -15.726115227 0.38168525696
          -0.0030119102448 -6.7942414284 0.036351200193 5.8192844391 -18.99669075 0.1956923455
          1.2087759972 -15.398245811 -0.044640038162 -0.0080834198743 -6.857986927 0.017027487978
          4.6107316017 -18.96307373 -0.20070643723 11.24974823 -21.992336273 -0.54513382912
          15.796061516 -22.572917938 5.3719418247e-06 -0.11108779162 -2.1526157856 0.078180477023
          0 0 0 11.245817184 -22.00925827 -0.27232187986
          -0.086179986596 -2.1882312298 0.039692077786 13.523287773 -22.288845062 4.7427638492e-06
          2.3201608658 -17.259441376 -0.493735075 0.76095336676 -13.123579979 -2.7810543202e-07
          1.2024265528 -15.4129076 -7.3934046441e-07 0.34039846063 -10.887495995 -0.062977820635
          -0.035814542323 -1.0514463186 2.9189681072e-07 2.3617544174 -17.240987778 -0.19736257195
          4.6146354675 -18.97615242 1.5941579932e-06 0.34618160129 -10.927992821 -0.036709506065
          -0.0070986920036 -6.8787384033 9.3854936267e-07 2.8661000729 -16.934631348 0.33011209965
          11.24451828 -22.015554428 4.0936047299e-06 0.29076451063 -8.7922801971 0.050624318421
          -0.079589135945 -2.1984989643 5.9570913891e-07 8.9747600555 -21.728998184 -0.52504605055
          15.796973228 -22.566244125 0.29547178745 2.3512372971 -17.257684708 -2.8977845545e-07
          -0.16593430936 -3.4371950626 0.11401564628 -0.019569581375 -5.0259432793 -0.042205613106
          0.35396799445 -10.94904232 3.9351888859e-07 5.8224177361 -18.996709824 0.37985545397
          0 0 0 8.9713897705 -21.742715836 -0.26328602433
          -0.14227956533 -3.4901819229 0.057512227446 13.524035454 -22.282085419 0.28290188313
          0.75414311886 -13.100410461 0.033234674484 1.2087769508 -15.398244858 0.044638607651
          -0.03858526051 -1.0455728769 -0.018612381071 4.6107330322 -18.963071823 0.20070959628
          -0.0080835213885 -6.857986927 -0.017025668174 11.245818138 -22.009256363 0.2723301053
          8.9683351517 -21.748685837 3.431459163e-06 3.5224175453 -18.956230164 -0.41746938229
          0.001430863631 -8.769030571 0.0082015246153 -0.13442470133 -3.5065500736 8.8005754151e-07
          -0.086179926991 -2.1882312298 -0.039690908045 -0.0042889048345 -8.8332929611 0.0027682033833
          2.3617553711 -17.24098587 0.19736205041 3.5236911774 -18.980480194 -0.19157502055
          0.34618157148 -10.927992821 0.036710280925 6.1910581589 -20.765254974 -0.42019769549
          15.79778862 -22.546865463 0.59056866169 0 0 0
          -0.21767742932 -4.9358930588 0.13664355874 6.1744670868 -20.777585983 -0.21630114317
          13.525622368 -22.263254166 0.5655207634 -0.20476062596 -5.0076174736 0.067874774337