<?xml version="1.0"?>
<VTKFile type="UnstructuredGrid" version="0.1" byte_order="LittleEndian" header_type="UInt32" compressor="vtkZLibDataCompressor">
  <UnstructuredGrid>
    <Piece NumberOfPoints="6405" NumberOfCells="4800">
      <PointData>
        <DataArray type="Float32" Name="DISPLACEMENT" NumberOfComponents="3" ComponentName0="X-DISPLACEMENT" ComponentName1="Y-DISPLACEMENT" ComponentName2="Z-DISPLACEMENT" format="ascii" RangeMin="0" RangeMax="246.40645599">
          0 0 0 0 0 0
          2.1010308266 -1.2108821869 -0.98133659363 0 0 0
          1.3419799805 -0.67338490486 -0.73839086294 0 0 0
          1.9183900356 -1.3590526581 -0.39128696918 1.1676986217 -0.80016696453 -0.30114531517
          0 0 0 3.8174066544 -2.2871596813 -1.0188724995
          0 0 0 3.7626655102 -2.4660396576 -0.52315634489
          2.7045195103 -1.848908186 -0.81786853075 0 0 0
          0 0 0 1.9271880388 -1.4081801176 1.1089094443e-07
          0.91942918301 -0.41711294651 -0.53168904781 1.1629129648 -0.82606482506 7.6188726439e-08
          2.6456570625 -1.9960342646 -0.41735059023 0.79036349058 -0.53937953711 -0.21537774801
          3.7214393616 -2.5161375999 3.4374266988e-07 1.8606591225 -1.4815216064 -0.60171914101
          0 0 0 2.6095423698 -2.0434372425 2.6388278229e-07
          1.799798727 -1.6227638721 -0.30842539668 0 0 0
          5.3904695511 -3.7617185116 -0.95331209898 0 0 0
          0.78347563744 -0.56232851744 2.1729880118e-08 0 0 0
          0 0 0 1.9183901548 -1.3590526581 0.3912872076
          3.9950590134 -3.3386895657 -0.78393775225 5.4070196152 -3.8932514191 -0.48410841823
          0.5276787281 -0.25471463799 -0.30255591869 1.167698741 -0.80016690493 0.30114549398
          4.0061392784 -3.4631905556 -0.39931312203 0.45502388477 -0.38507112861 -0.12403386831
          1.7686266899 -1.6619678736 1.5464431158e-07 3.7626657486 -2.4660394192 0.52315706015
          0 0 0 0 0 0
          1.0803030729 -1.2395111322 -0.3704482317 2.8533830643 -2.9858064651 -0.61436641216
          5.3913016319 -3.9391350746 6.8567715061e-07 2.6456573009 -1.9960340261 0.41735112667
          2.8333234787 -3.1089146137 -0.31215548515 0.7903636694 -0.5393794179 0.21537780762
          3.9957022667 -3.5036101341 5.5227485518e-07 1.018824935 -1.3870198727 -0.18851721287
          0.46006560326 -0.40521249175 -6.1267890317e-08 0 0 0
          6.830681324 -5.4980664253 -0.83719658852 0 0 0
          5.2219896317 -5.1182694435 -0.72463721037 1.7997990847 -1.6227636337 0.30842575431
          6.8709793091 -5.5843968391 -0.42293274403 2.101031065 -1.2108820677 0.98133695126
          0 0 0 0 0 0
          0.99602496624 -1.4266206026 1.8354938902e-08 2.8191981316 -3.1464877129 3.8781647049e-07
          0.014651983045 -0.19032336771 -0.05007667467 5.2531323433 -5.2035207748 -0.36559939384
          1.3419803381 -0.67338472605 0.73839116096 1.733648181 -2.7148501873 -0.43294650316
          0 0 0 5.407020092 -3.8932511806 0.48410981894
          -0.043757218868 -0.34053128958 -0.033299781382 1.6825984716 -2.8412423134 -0.21928177774
          4.0061402321 -3.4631900787 0.39931425452 0.45502403378 -0.3850709796 0.12403377891
          3.8575320244 -4.7890601158 -0.6120532155 0.091745942831 -1.1237156391 -0.13584387302
          6.8679013252 -5.6139531136 1.1291465398e-06 3.8174073696 -2.2871594429 1.0188732147
          0 0 0 0 0 0
          3.8509552479 -4.8742465973 -0.30865761638 2.7045202255 -1.8489078283 0.8178691864
          5.2562451363 -5.2324795723 9.4019060271e-07 0.028400225565 -1.2768782377 -0.077749967575
          0.91942954063 -0.41711267829 0.53168922663 -0.053963247687 -0.37152969837 -1.7409719533e-07
          1.6648340225 -2.8781406879 1.9433220189e-07 2.8333239555 -3.1089141369 0.31215628982
          1.0188254118 -1.3870196342 0.18851727247 3.8458347321 -4.9021558762 7.1927365752e-07
          1.8606598377 -1.4815211296 0.60171955824 0.011074719951 -1.3202418089 -1.4323255471e-07
          2.494502306 -4.5164384842 -0.49470946193 6.8709797859 -5.5843963623 0.42293503881
          5.3904705048 -3.7617180347 0.9533135891 0 0 0
          8.101890564 -7.403339386 -0.72828799486 0 0 0
          0 0 0 0.36869749427 -2.5461490154 -0.24749414623
          2.4466946125 -4.6028466225 -0.24964919686 8.1426391602 -7.4479999542 -0.36692786217
          6.3608188629 -7.0698990822 -0.67180728912 5.253133297 -5.203520298 0.36560130119
          -0.565361619 -0.31366533041 0.11655576527 0 0 0
          3.9950602055 -3.3386890888 0.78393894434 0.52767902613 -0.25471431017 0.30255591869
          0.30778881907 -2.6760795116 -0.12992466986 -0.043756950647 -0.34053105116 0.033299483359
          -0.60560232401 -0.45420011878 0.064003907144 1.6825990677 -2.8412418365 0.21928219497
          6.3927969933 -7.1166939735 -0.33678147197 3.8509562016 -4.8742461205 0.30865907669
          2.4340040684 -4.6301159859 4.6776546014e-07 8.1451768875 -7.4647660255 1.6752405827e-06
          -0.68383860588 -1.0208830833 0.095537677407 0.02840068005 -1.2768778801 0.077749706805
          0 0 0 4.8491683006 -6.785569191 -0.6136726141
          1.080303669 -1.2395105362 0.37044838071 2.8533842564 -2.9858059883 0.61436730623
          0.29577803612 -2.7141730785 -2.8782610073e-08 6.4000492096 -7.1336212158 1.430183147e-06
          -0.67495042086 -0.4901997149 -3.9092574866e-07 -0.72947078943 -1.1830413342 0.026625804603
          4.847984314 -6.8304772377 -0.30893260241 6.8306827545 -5.4980659485 0.8371989727
          0 0 0 0.86279302835 -4.3035573959 -0.3726015687
          5.221991539 -5.1182689667 0.72463923693 -0.78177255392 -1.2527645826 -1.7913501438e-07
          0.80346447229 -4.3917198181 -0.19039705396 4.8483242989 -6.8470873833 1.1515032838e-06
          0.014652363025 -0.19032290578 0.050076495856 2.4466953278 -4.6028461456 0.24965016544
          3.3482632637 -6.5297136307 -0.56579750776 8.1426401138 -7.4479994774 0.36693125963
          -0.8964471221 -2.3683774471 0.1506177634 1.7336492538 -2.714849472 0.4329470098
          0 0 0 0.30778944492 -2.6760790348 0.12992464006
          3.3075826168 -6.5683779716 -0.28471723199 -0.60560178757 -0.45419991016 -0.064004540443
          -0.93375903368 -2.5592291355 0.054496243596 6.3927979469 -7.1166934967 0.33678436279
          3.8575334549 -4.7890591621 0.61205476522 0.09174669534 -1.1237149239 0.13584369421
          9.2094764709 -9.3596639633 -0.64393758774 0 0 0
          0.79674220085 -4.4187188148 1.8748616526e-07 7.4066557884 -9.0693855286 -0.62881028652
          9.2429895401 -9.3751020432 -0.3248449862 0 0 0
          0.068226419389 -0.74248611927 -0.076955661178 7.4349551201 -9.0872840881 -0.314881742
          3.3008396626 -6.5826511383 8.4132227585e-07 0.017499854788 -0.73346942663 -0.0062145451084
          -0.72946989536 -1.1830404997 -0.026626203209 -0.95512878895 -2.6046152115 -2.1676050892e-06
          4.8479852676 -6.8304767609 0.30893495679 5.7848916054 -8.8380088806 -0.61828142405
          0.056343641132 -1.5482343435 -0.20568963885 9.2482719421 -9.3827447891 2.3235329536e-06
          0 0 0 -0.024748956785 -1.5374852419 -0.048840664327
          5.7933650017 -8.8532876968 -0.30968239903 7.4430136681 -9.0959587097 2.0232916995e-06
          0.016136102378 -0.76555496454 -3.3304110048e-07 2.4945037365 -4.5164375305 0.49471053481
          1.565087676 -6.2899079323 -0.51196318865 8.1018924713 -7.4033389091 0.72829145193
          0 0 0 0.8363519907 -4.2719736099 -0.83884429932
          0.80346530676 -4.3917188644 0.19039747119 0.36869862676 -2.5461480618 0.24749420583
          6.3608207703 -7.0698981285 0.67181026936 -0.56536108255 -0.31366476417 -0.1165561527
          0.62463587523 -4.265666008 -0.2665450871 1.5105036497 -6.3250155449 -0.26288977265
          3.3075835705 -6.568377018 0.28471896052 -0.93375873566 -2.559227705 -0.054500456899
          5.7980647087 -8.861333847 1.6880562725e-06 -0.037436105311 -1.5773044825 -8.2783060407e-07
          4.2571182251 -8.6732244492 -0.61279278994 0.36988669634 -2.6105043888 -0.40435355902
          -0.68383771181 -1.0208821297 -0.095538139343 9.2429904938 -9.3751010895 0.32484966516
          4.849170208 -6.7855682373 0.61367499828 0 0 0
          1.5141974688 -6.3366212845 5.0380998573e-07 0.56708723307 -4.3865871429 -6.4905282215e-07
          4.2473316193 -8.6745481491 -0.31324321032 7.4349565506 -9.0872840881 0.31488582492
          0.26224312186 -2.608925581 -0.14807184041 0.017499970272 -0.73346912861 0.0062139290385
          0.86279457808 -4.3035559654 0.37260207534 4.2497558594 -8.6838254929 1.3151318399e-06
          5.7933664322 -8.8532867432 0.3096858263 -0.024748720229 -1.5374847651 0.048839122057
          0.24304036796 -2.6612541676 -1.0516943121e-06 10.200178146 -11.278369904 -0.59213274717
          0 0 0 10.225018501 -11.281694412 -0.29843586683
          3.3482651711 -6.5297122002 0.56579935551 8.3721647263 -11.012414932 -0.59314274788
          -0.89644563198 -2.3683767319 -0.15061953664 2.3182780743 -7.07310009 -0.94769465923
          0.16335953772 -0.83478182554 -0.12405713648 0.62463700771 -4.2656655312 0.26654407382
          1.5105047226 -6.3250145912 0.26289081573 0 0 0
          8.3966312408 -11.018278122 -0.29659053683 2.2720003128 -6.87778759 -0.21471211314
          0.11441017687 -0.83435589075 -0.04949997738 2.4997091293 -8.407119751 -0.68900483847
          0.67636913061 -4.1275186539 -0.49247899652 9.209479332 -9.3596630096 0.64394235611
          0 0 0 7.4066581726 -9.0693836212 0.62881445885
          10.232023239 -11.285180092 3.0728215279e-06 0.63578826189 -4.1948652267 -0.2528937757
          2.4819805622 -8.3724803925 -0.32782509923 0.068226285279 -0.74248558283 0.076955109835
          6.6627502441 -10.809047699 -0.59882938862 0.32648634911 -1.7067599297 -0.21343457699
          0 0 0 4.2473325729 -8.6745471954 0.31324586272
          0.2622435987 -2.6089251041 0.14806999266 8.4043111801 -11.022900581 2.7188889362e-06
          1.632437706 -6.0961923599 -1.5982902823e-07 6.6863255501 -10.812532425 -0.30084565282
          0.26615047455 -1.7217828035 -0.10924115032 0.10745103657 -0.83899915218 -3.798303112e-07
          5.7848939896 -8.8380069733 0.61828494072 0.05634361878 -1.5482336283 0.20568834245
          2.4905705452 -8.3800172806 9.2081040748e-07 0.63611006737 -4.1859240532 -1.0485158555e-06
          1.5650895834 -6.2899069786 0.51196432114 6.6928396225 -10.819389343 2.330332336e-06
          0.25012940168 -1.7266849279 -7.5051218573e-07 0.83635407686 -4.2719721794 0.83884328604
          10.225019455 -11.281693459 0.29844203591 5.0592589378 -10.69761467 -0.63058590889
          0 0 0 0.45701599121 -2.7967321873 -0.30331918597
          5.0884604454 -10.702488899 -0.31577646732 8.3966331482 -11.018277168 0.29659599066
          0.11441017687 -0.83435565233 0.049499262124 2.2720022202 -6.8777871132 0.21471193433
          0.40944725275 -2.8425960541 -0.16093958914 4.2571206093 -8.6732234955 0.61279559135
          2.8099703789 -8.7907953262 -0.87481230497 2.4819817543 -8.3724794388 0.32782697678
          0.36988714337 -2.6105036736 0.40435165167 0.63578885794 -4.1948647499 0.25289171934
          1.3079855442 -6.415391922 -0.44317126274 3.0499286652 -8.8128852844 -0.31820419431
          5.09445858 -10.715301514 1.9055099756e-06 6.6863269806 -10.812531471 0.30085036159
          0.26615050435 -1.7217824459 0.1092396751 1.2928805351 -6.3757600784 -0.37039557099
          0.39982160926 -2.848105669 -1.0409212337e-06 11.142429352 -13.136279106 -0.56954205036
          0 0 0 0.15580886602 -0.83485668898 -0.10783291608
          3.0814905167 -8.8641338348 -9.4247084803e-08 3.800825119 -10.605970383 -0.66421031952
          9.2942056656 -12.865775108 -0.56326341629 10.200180054 -11.278367996 0.59213900566
          0 0 0 0 0 0
          1.3571743965 -6.2036242485 -7.3154041047e-07 0.65894967318 -4.2774329185 -0.35911375284
          11.158510208 -13.142713547 -0.28574284911 3.8469777107 -10.639860153 -0.30251321197
          9.3133907318 -12.875835419 -0.28083124757 8.3721675873 -11.012413025 0.59314829111
          0.11820005625 -0.85595619678 -0.046214565635 2.3182804585 -7.0730986595 0.94769442081
          0.1633592248 -0.83478146791 0.12405643612 0.64435207844 -4.344938755 -0.18806931376
          5.0884618759 -10.702487946 0.31578031182 0.40944740176 -2.8425955772 0.16093751788
          7.4969334602 -12.643529892 -0.55014741421 2.4997115135 -8.4071178436 0.68900686502
          0.6763703227 -4.1275177002 0.49247726798 0 0 0
          0.28263944387 -1.7827475071 -0.16209836304 11.16564846 -13.146258354 3.9220071812e-06
          0.11490240693 -0.86113107204 -3.6614758869e-07 3.8470315933 -10.643016815 1.4119393654e-06
          7.5264725685 -12.656707764 -0.27657863498 6.6627526283 -10.809045792 0.59883415699
          9.3193826675 -12.880274773 3.5136106362e-06 0.32648605108 -1.7067593336 0.21343319118
          0.64705598354 -4.3459954262 -1.1737281511e-06 0.24618119001 -1.8229806423 -0.084143288434
          3.0499300957 -8.8128852844 0.31820422411 1.2928814888 -6.3757596016 0.37039411068
          2.11708498 -8.5113706589 -0.37292483449 7.5329294205 -12.662894249 3.074976803e-06
          0.235962376 -1.8330615759 -7.7345714544e-07 2.0862886906 -8.594288826 -0.23649588227
          5.8616719246 -12.466402054 -0.53811442852 0 0 0
          0.39428389072 -2.9347188473 -0.20575623214 11.158512115 -13.142712593 0.28575071692
          0.11820001155 -0.85595607758 0.046213854104 3.8469791412 -10.6398592 0.30251607299
          5.9067831039 -12.489955902 -0.27086055279 5.0592617989 -10.697612762 0.6305898428
          9.3133926392 -12.875834465 0.28083831072 3.3190498352 -10.752667427 -0.32468706369
          0.96910750866 -6.1370477676 -0.33635884523 0.45701605082 -2.796731472 0.30331730843
          0.36990639567 -2.9956951141 -0.10687728226 0.64435249567 -4.3449382782 0.18806703389
          3.3502073288 -10.878937721 -0.21258693933 0.98889440298 -6.2134785652 -0.1751870811
          2.0028591156 -8.4826002121 -4.5539957227e-07 2.8099732399 -8.7907934189 0.8748126626
          7.526473999 -12.65670681 0.27658480406 1.3079874516 -6.4153904915 0.44317001104
          5.9111175537 -12.498562813 2.606833732e-06 0.24618111551 -1.8229804039 0.084141753614
          0.36247363687 -3.0095541477 -1.1333133898e-06 3.3545098305 -10.871948242 8.5103658876e-07
          0.97734820843 -6.2255740166 -1.1092286059e-06 0.51481604576 -4.3770914078 -0.21904012561
          4.6116733551 -12.293535233 -0.47524288297 11.142433167 -13.136277199 0.56955003738
          0 0 0 2.0862903595 -8.5942878723 0.23649501801
          0.15580844879 -0.83485639095 0.10783216357 0.51052802801 -4.4518156052 -0.11520845443
          3.80082798 -10.605969429 0.66421329975 9.2942085266 -12.865773201 0.56327050924
          4.6491293907 -12.346419334 -0.2470793277 12.086891174 -14.976132393 -0.5661881566
          0 0 0 0.65895026922 -4.2774319649 0.35911166668
          12.094870567 -14.99203968 -0.28193950653 0.093566171825 -0.83105951548 -0.063503794372
          10.212209702 -14.691866875 -0.54111003876 5.9067845345 -12.489954948 0.270865798
          0 0 0 0.36990639567 -2.9956946373 0.10687506199
          10.222397804 -14.711343765 -0.2703268826 0.072921186686 -0.86322027445 -0.026953527704
          3.3502089977 -10.878937721 0.21258866787 0.98889511824 -6.2134780884 0.17518493533
          7.4969367981 -12.643527985 0.5501536727 0.5054898262 -4.4699492455 -1.3593887616e-06
          4.651740551 -12.354230881 2.1126886622e-06 0.28263896704 -1.7827470303 0.16209688783
          2.7964706421 -11.077874184 -0.32504957914 0.17457790673 -1.8196008205 -0.088698938489
          8.3300161362 -14.412600517 -0.50802898407 1.3906304836 -8.2562627792 -0.26088917255
          12.09979248 -14.997055054 4.868752967e-06 0 0 0
          2.7243595123 -11.091640472 -0.19135189056 10.225980759 -14.717458725 4.4017292566e-06
          0.071041993797 -0.87075412273 -3.6694132177e-07 8.3489456177 -14.439527512 -0.25119891763
          0.15647938848 -1.8694732189 -0.046236388385 1.4244638681 -8.3271884918 -0.13757365942
          2.117087841 -8.5113687515 0.37292441726 2.8191111088 -11.156899452 -8.2589224348e-08
          0.69276869297 -6.1205840111 -0.19907556474 0.51052820683 -4.4518151283 0.11520578712
          3.3845009804 -12.079278946 -0.369351089 8.3536653519 -14.445208549 3.9094552449e-06
          5.8616752625 -12.466400146 0.53811979294 4.6491312981 -12.346418381 0.24708357453
          1.4239500761 -8.3335514069 -8.4910010401e-07 0.15048269928 -1.8835967779 -8.1463934976e-07
          0.3942836225 -2.934718132 0.20575411618 12.094872475 -14.992038727 0.28194928169
          6.5691347122 -14.242176056 -0.44319203496 0.70791119337 -6.1956133842 -0.1036869511
          0.24459511042 -3.0081453323 -0.10666760057 3.3950910568 -12.144164085 -0.20487365127
          3.3190531731 -10.75266552 0.32468879223 0.96910876036 -6.1370463371 0.33635693789
          0 0 0 0.23331135511 -3.0716061592 -0.055553175509
          10.222399712 -14.711342812 0.27033570409 0.072921097279 -0.86322015524 0.02695280686
          6.5986084938 -14.269124985 -0.22773994505 0.71051383018 -6.2153086662 -1.4012013025e-06
          3.4185390472 -12.158823967 1.6288279312e-06 2.7243618965 -11.091639519 0.19135186076
          6.6029653549 -14.278278351 3.4101017263e-06 0.2289352268 -3.0899422169 -1.2515330354e-06
          8.348947525 -14.439526558 0.25120675564 0.15647922456 -1.8694729805 0.046234764159
          1.424464941 -8.3271875381 0.13757205009 0.51481622458 -4.3770904541 0.21903763711
          4.611676693 -12.293533325 0.4752472043 5.2010707855 -14.202242851 -0.44343030453
          12.086894989 -14.976130486 0.56619799137 0 0 0
          0.31865546107 -4.4428238869 -0.11270049214 0.093565665185 -0.83105927706 0.06350299716
          10.212213516 -14.691864967 0.54111891985 0.70791167021 -6.1956129074 0.10368421674
          3.3950929642 -12.144163132 0.20487692952 5.2245602608 -14.223146439 -0.22169400752
          1.9573383331 -10.408430099 -0.15270388126 0.31690183282 -4.5114979744 -0.057679276913
          0.233311221 -3.0716059208 0.055550705642 6.5986099243 -14.269124031 0.22774679959
          1.9847142696 -10.471802711 -0.10584935546 3.0227248669 -12.23955822 -0.56551647186
          0.96289986372 -8.0691738129 -0.15377485752 13.046549797 -16.860713959 -0.56740772724
          0 0 0 11.128121376 -16.573232651 -0.53615039587
          2.7964754105 -11.077872276 0.32504993677 0.17457723618 -1.8196004629 0.088697336614
          8.3300199509 -14.41259861 0.50803691149 0.98736041784 -8.1327133179 -0.078582510352
          3.0700936317 -12.226396561 -0.1746610105 1.3906325102 -8.2562608719 0.26088780165
          13.048295021 -16.881252289 -0.28221422434 0 0 0
          0.31553006172 -4.532374382 -1.5879095372e-06 5.2341237068 -14.240690231 2.8982506137e-06
          0.019029222429 -0.82374745607 -0.0088590392843 11.129389763 -16.596155167 -0.2674561739
          0.015991333872 -0.85982608795 -0.0037281699479 1.9677860737 -10.481882095 -4.0194089479e-07
          9.2200899124 -16.282346725 -0.49505358934 0.98933696747 -8.1529531479 -1.2117432107e-06
          3.1028904915 -12.274884224 -2.7941226222e-07 13.049840927 -16.887428284 5.9104809225e-06
          0 0 0 0.042266316712 -1.823756814 -0.012382156216
          9.2174825668 -16.311655045 -0.24582357705 11.130872726 -16.602695465 5.3769831538e-06
          0.69276940823 -6.1205825806 0.19907304645 3.3845045567 -12.079277039 0.36935442686
          0.015572765842 -0.86842870712 -3.7391822616e-07 0.038696750998 -1.8765848875 -0.006512388587
          6.5691380501 -14.242174149 0.4431989491 0.24459454417 -3.0081446171 0.10666523129
          0.41900458932 -6.1197066307 -0.10392045975 4.1802725792 -14.228892326 -0.4869800508
          0.31690186262 -4.5114974976 0.05767615512 5.2245621681 -14.223145485 0.22169983387
          0.42669966817 -6.1835541725 -0.052373874933 4.2075104713 -14.257266045 -0.21234001219
          1.9847155809 -10.471801758 0.1058486402 9.2199068069 -16.316585541 4.8176416385e-06
          0.037406202406 -1.892534852 -8.6496174845e-07 7.1123828888 -15.993127823 -0.41358524561
          0.9873611331 -8.1327123642 0.078580155969 3.0700974464 -12.226397514 0.17466165125
          13.048296928 -16.881252289 0.28222605586 0 0 0
          0.067926563323 -3.0262219906 -0.017001623288 7.1199994087 -16.025117874 -0.21690893173
          11.12939167 -16.596153259 0.26746696234 0.064056374133 -3.089312315 -0.0087568322197
          0.42731443048 -6.2047152519 -1.7495840439e-06 4.2166266441 -14.265688896 2.3327459076e-06
          0.015991214663 -0.85982596874 0.0037274276838 9.2174844742 -16.311655045 0.245833233
          7.1286206245 -16.032701492 4.2702317842e-06 0.062739536166 -3.1088545322 -1.386145982e-06
          5.2010741234 -14.202240944 0.44343623519 2.5511443615 -12.152799606 -0.23323620856
          0.03869652003 -1.8765847683 0.0065106567927 0.31865525246 -4.4428229332 0.11269754916
          1.313644886 -10.050351143 -0.11158262193 2.539801836 -12.238965988 -0.12533715367
          1.9573408365 -10.408428192 0.15270344913 1.3291839361 -10.105892181 -0.055999815464
          0.42669990659 -6.1835536957 0.052370451391 4.2075123787 -14.257265091 0.21234473586
          3.0227308273 -12.23955822 0.56551897526 0.96290123463 -8.0691728592 0.15377274156
          0.095842249691 -4.4601159096 -0.021508768201 5.7024917603 -15.8677845 -0.40474960208
          13.046553612 -16.860712051 0.56741964817 0 0 0
          11.128125191 -16.573228836 0.53616124392 0.092604473233 -4.5248031616 -0.011051022448
          2.5507321358 -12.239556313 5.6635553847e-07 0.56200176477 -7.9701800346 -0.084213607013
          3.7267377377 -14.399149895 -0.29611510038 5.7293128967 -15.887068748 -0.20194599032
          0.019028639421 -0.82374733686 0.0088581945747 1.337728858 -10.12863636 -7.2877600132e-07
          7.1200013161 -16.025115967 0.2169174999 0.064056150615 -3.0893120766 0.0087540922686
          3.7475962639 -14.470520973 -0.17218007147 0.57493758202 -8.0229701996 -0.041877433658
          9.2200937271 -16.282342911 0.49506336451 0.09138713032 -4.5457921028 -1.8491048195e-06
          5.7329349518 -15.898019791 3.7912611788e-06 0.042265482247 -1.8237565756 0.012380430475
          3.7424383163 -14.465052605 1.650020522e-06 14.000653267 -18.810537338 -0.56661105156
          0 0 0 0.5780621171 -8.0424289703 -1.6598230559e-06
          13.999674797 -18.828771591 -0.28277564049 0 0 0
          2.5398035049 -12.238965988 0.12533809245 12.041840553 -18.532869339 -0.54259479046
          0.41900494695 -6.1197052002 0.10391724855 4.1802763939 -14.228890419 0.48698490858
          -0.060253296047 -0.81032955647 0.048610016704 1.3291848898 -10.105892181 0.055998392403
          12.038873672 -18.551275253 -0.27009189129 -0.045165788382 -0.84645783901 0.020657109097
          7.1123867035 -15.993125916 0.41359391809 13.999000549 -18.834791183 7.043640835e-06
          0.092604368925 -4.5248026848 0.01104738377 10.069542885 -18.280408859 -0.51698279381
          -0.097905471921 -1.7963777781 0.065929710865 5.7293148041 -15.887067795 0.20195358992
          0 0 0 4.7883148193 -15.728137016 -0.37734055519
          0.12857577205 -6.1152234077 -0.025057436898 0.067925751209 -3.0262215137 0.016998978332
          -0.087550826371 -1.8503042459 0.034128509462 10.059933662 -18.295459747 -0.25797235966
          12.038617134 -18.557060242 6.434640909e-06 3.7475988865 -14.47052002 0.17218352854
          0.12711924314 -6.1738028526 -0.01272216253 4.8093657494 -15.762174606 -0.1894031018
          0.57493811846 -8.0229692459 0.04187418893 -0.044088911265 -0.8549451232 -3.7509187223e-07
          1.6168506145 -12.008031845 -0.093592740595 10.060032845 -18.302707672 5.8021510085e-06
          2.5511474609 -12.152798653 0.2332367599 -0.084084004164 -1.8661824465 -8.9915920398e-07
          0.12680388987 -6.1937417984 -2.1688126708e-06 1.6376392841 -12.075044632 -0.040782283992
          4.8085584641 -15.770399094 3.2630282476e-06 1.3136469126 -10.050350189 0.11158134043
          13.999676704 -18.828771591 0.28278973699 8.0552444458 -18.022918701 -0.52351778746
          0.73366165161 -9.9015817642 -0.061973128468 0 0 0
          -0.12064788491 -2.9922280312 0.072898447514 2.9875876904 -14.544047356 -0.22533831
          -0.11829386652 -3.0575876236 0.037330012769 8.0416250229 -18.033903122 -0.24788251519
          12.03887558 -18.551275253 0.27010476589 0.74918472767 -9.9439153671 -0.029633609578
          2.9707963467 -14.598070145 -0.11824134737 -0.045165929943 -0.84645777941 -0.020657859743
          0.09584171325 -4.4601149559 0.021505311131 5.7024950981 -15.867782593 0.40475729108
          1.6340630054 -12.092050552 2.7894367705e-08 0.56200277805 -7.9701786041 0.084210589528
          3.726742506 -14.399147987 0.29611888528 8.0463981628 -18.040428162 5.1485289987e-06
          10.05993557 -18.29545784 0.25798401237 0.7522623539 -9.9620990753 -1.2667059082e-06
          -0.087551102042 -1.8503041267 -0.034130312502 -0.11681117117 -3.0775609016 -1.4969806443e-06
          0.12711936235 -6.1738023758 0.012717903592 4.8093676567 -15.762173653 0.18940967321
          2.981171608 -14.621798515 1.5946410485e-06 3.8271129131 -15.625473976 -0.30322518945
          0.16769137979 -7.9346137047 -0.026663759723 3.8276603222 -15.669429779 -0.15899261832
          0.16874735057 -7.9818935394 -0.014094617218 14.000657082 -18.810533524 0.56662523746
          0 0 0 1.6376405954 -12.075043678 0.040782317519
          -0.14217743278 -4.4321427345 0.066746197641 6.4660449028 -17.550642014 -0.35407951474
          -0.14827691019 -4.4995493889 0.033857300878 12.041844368 -18.532867432 0.54260778427
          -0.060253933072 -0.81032949686 -0.048610884696 6.4775118828 -17.550760269 -0.1835064739
          8.0416278839 -18.033903122 0.2478928417 0.74918556213 -9.9439144135 0.029631143436
          -0.11829417199 -3.0575873852 -0.037332974374 2.9707980156 -14.598069191 0.1182442829
          3.8289527893 -15.678014755 2.8406946058e-06 0.16978988051 -8.0003948212 -2.2418414574e-06
          10.0695467 -18.280405045 0.51699447632 -0.097906433046 -1.7963776588 -0.065931521356
          4.788318634 -15.728135109 0.37734720111 -0.14907112718 -4.5212597847 -2.0939648948e-06
          0.12857575715 -6.1152224541 0.025053430349 6.4739465714 -17.558673859 4.7126204663e-06
          14.94237709 -20.803300858 -0.56443095207 0 0 0
          1.6168533564 -12.008030891 0.0935928002 3.8276634216 -15.669428825 0.15899825096
          0 0 0 12.943451881 -20.530780792 -0.54596197605
          0.92655962706 -11.846033096 -0.033141620457 0.16874776781 -7.9818930626 0.014090233482
          -0.13646873832 -0.79375034571 0.10349459201 1.9374129772 -14.016325951 0.0031706423033
          14.941155434 -20.817621231 -0.28220424056 8.0552492142 -18.022914886 0.52352821827
          12.941335678 -20.544218063 -0.27301287651 -0.10251779854 -0.82385385036 0.04421344772
          0.73366343975 -9.9015798569 0.061970844865 0.94225722551 -11.883123398 -0.014363100752
          -0.12064889818 -2.9922277927 -0.072901315987 5.3157019615 -17.380620956 -0.35731217265
          -0.148277089 -4.4995493889 -0.033861424774 2.9875910282 -14.544045448 0.22534075379
          -0.1778947264 -6.1039614677 0.051363140345 6.477514267 -17.550758362 0.18351596594
          1.9525201321 -14.082085609 -0.02394685708 -0.18922927976 -6.1636805534 0.025135537609
          5.3134980202 -17.396257401 -0.18305411935 10.940886497 -20.268863678 -0.53230518103
          14.939987183 -20.822435379 8.2609067249e-06 -0.23598213494 -1.7372150421 0.1481987983
          0 0 0 10.936075211 -20.280036926 -0.26587772369
          -0.2083953619 -1.788962245 0.076261274517 12.940410614 -20.548997879 7.5688953984e-06
          3.1257882118 -15.790518761 -0.26453378797 0.94607067108 -11.900619507 -5.8188612684e-07
          1.9492422342 -14.100193024 8.9190024255e-07 0.21676926315 -9.8348207474 -0.024724749848
          -0.100176543 -0.83104431629 -3.5425543388e-07 3.1295723915 -15.836683273 -0.12212134898
          5.3185443878 -17.408817291 4.2833403313e-06 0.22257630527 -9.870973587 -0.012580878101
          -0.19202640653 -6.1840257645 -2.6277575671e-06 3.8271181583 -15.625472069 0.30323085189
          10.934707642 -20.284343719 6.8528870543e-06 0.16769209504 -7.9346122742 0.026659648865
          -0.19978496432 -1.8028408289 -8.8478572025e-07 8.9358482361 -20.01036644 -0.52099990845
          14.941157341 -20.817619324 0.28222078085 3.1213958263 -15.849811554 2.6357633942e-06
          -0.31017249823 -2.9055514336 0.17092292011 -0.14217823744 -4.4321422577 -0.066750116646
          0.22484694421 -9.887055397 -1.9591695946e-06 6.4660491943 -17.550640106 0.3540892005
          0 0 0 8.9315261841 -20.01776123 -0.26083469391
          -0.29898488522 -2.9748184681 0.08871499449 12.941338539 -20.544216156 0.27302804589
          0.942258358 -11.883122444 0.014361985028 1.9525214434 -14.082084656 0.023948611692
          -0.10251795501 -0.82385385036 -0.04421415925 5.3134999275 -17.396257401 0.18306264281
          -0.18922922015 -6.1636800766 -0.025140691549 10.936078072 -20.280036926 0.26589146256
          8.9284162521 -20.021966934 6.1214527705e-06 4.3480477333 -17.25702095 -0.33609065413
          -0.23503084481 -7.9392752647 0.027984239161 -0.29364910722 -2.9937748909 -1.5302950942e-06
          -0.20839565992 -1.7889621258 -0.076263047755 -0.24468165636 -7.9908432961 0.014905963093
          3.1295731068 -15.83668232 0.12212624401 4.3377857208 -17.301315308 -0.16544762254
          0.22257703543 -9.8709726334 0.012577031739 6.7016410828 -18.946517944 -0.30087545514
          14.942380905 -20.80329895 0.56444758177 0 0 0
          -0.38909503818 -4.3600311279 0.16702315211 6.6936407089 -18.916820526 -0.18604387343