<?xml version="1.0"?>
<VTKFile type="UnstructuredGrid" version="0.1" byte_order="LittleEndian" header_type="UInt32" compressor="vtkZLibDataCompressor">
  <UnstructuredGrid>
    <Piece NumberOfPoints="6405" NumberOfCells="4800">
      <PointData>
        <DataArray type="Float32" Name="DISPLACEMENT" NumberOfComponents="3" ComponentName0="X-DISPLACEMENT" ComponentName1="Y-DISPLACEMENT" ComponentName2="Z-DISPLACEMENT" format="ascii" RangeMin="0" RangeMax="239.04037508">
          0 0 0 0 0 0
          2.0266253948 -1.1931692362 -0.94132250547 0 0 0
          1.3046847582 -0.67548370361 -0.71794855595 0 0 0
          1.8505903482 -1.3285293579 -0.3745392859 1.135394454 -0.78988981247 -0.29258900881
          0 0 0 3.6629676819 -2.2271969318 -0.96930086613
          0 0 0 3.6105883121 -2.3864326477 -0.49852272868
          2.6287870407 -1.8080149889 -0.79457682371 0 0 0
          0 0 0 1.8577306271 -1.3736943007 4.3325155019e-08
          0.92159843445 -0.42237326503 -0.52978342772 1.1304439306 -0.81266260147 1.5814515919e-08
          2.5713391304 -1.9368649721 -0.40534761548 0.79187345505 -0.53216445446 -0.2140225023
          3.5695328712 -2.4307215214 8.9236813494e-08 1.8652609587 -1.4487398863 -0.60411244631
          0 0 0 2.5358064175 -1.9783843756 3.6118070312e-08
          1.8008890152 -1.5721350908 -0.30932119489 0 0 0
          5.1491947174 -3.6045427322 -0.90229958296 0 0 0
          0.78555572033 -0.55117696524 -1.2032273844e-08 0 0 0
          0 0 0 1.8505903482 -1.3285293579 0.3745393455
          3.8782496452 -3.2041518688 -0.76147657633 5.1647830009 -3.7153835297 -0.45905610919
          0.54843914509 -0.25219243765 -0.31450161338 1.1353945732 -0.78988981247 0.29258903861
          3.888219595 -3.3083834648 -0.38766428828 0.45836785436 -0.36708179116 -0.12753927708
          1.7681245804 -1.6065425873 -2.0994326277e-08 3.6105883121 -2.3864324093 0.4985229075
          0 0 0 0 0 0
          1.1587728262 -1.1968098879 -0.40258020163 2.8613200188 -2.8661575317 -0.62036573887
          5.1491975784 -3.7547769547 1.4625959466e-07 2.5713391304 -1.9368648529 0.40534770489
          2.838187933 -2.9666409492 -0.3151062429 0.79187345505 -0.53216439486 0.2140224874
          3.8777117729 -3.3423280716 6.3495626534e-08 1.0861129761 -1.3256169558 -0.20433297753
          0.45054078102 -0.38266730309 -4.0280060176e-08 0 0 0
          6.5035686493 -5.1835536957 -0.79291731119 0 0 0
          5.0616617203 -4.8267831802 -0.70546758175 1.8008891344 -1.5721349716 0.30932116508
          6.5409770012 -5.2521572113 -0.4013633132 2.0266253948 -1.1931692362 0.94132262468
          0 0 0 0 0 0
          1.0582902431 -1.359087944 -7.8240788071e-08 2.822060585 -2.9961550236 -2.4552276656e-08
          0.077975958586 -0.1639482826 -0.081163682044 5.0908589363 -4.8941822052 -0.35561987758
          1.3046847582 -0.6754835844 0.71794855595 1.867856741 -2.5934250355 -0.47060799599
          0 0 0 5.1647830009 -3.7153832912 0.45905640721
          -0.00043685635319 -0.2935308814 -0.043849874288 1.8090513945 -2.6955890656 -0.23738510907
          3.888219595 -3.3083832264 0.38766440749 0.45836785436 -0.36708173156 0.12753920257
          3.8533229828 -4.5263643265 -0.61787170172 0.23940208554 -1.0568708181 -0.1927549094
          6.5386352539 -5.2762985229 2.1577153575e-07 3.6629679203 -2.2271966934 0.96930104494
          0 0 0 0 0 0
          3.8491327763 -4.5889353752 -0.31028816104 2.6287870407 -1.8080148697 0.79457688332
          5.0937123299 -4.9172544479 1.0052818311e-07 0.16157691181 -1.1898591518 -0.10751214623
          0.92159843445 -0.42237317562 0.52978342772 -0.021137472242 -0.31312096119 -6.9904963595e-08
          1.7870323658 -2.7248125076 -1.1397290933e-07 2.838187933 -2.9666409492 0.31510621309
          1.0861129761 -1.3256168365 0.20433281362 3.8454391956 -4.6082968712 -2.1119515026e-08
          1.8652609587 -1.4487396479 0.60411244631 0.13785286248 -1.2257891893 -1.3358865658e-07
          2.6824698448 -4.2873134613 -0.53389030695 6.5409765244 -5.2521572113 0.40136376023
          5.1491947174 -3.6045422554 0.90229988098 0 0 0
          7.7060618401 -6.8745427132 -0.69789522886 0 0 0
          0 0 0 0.61323273182 -2.4047982693 -0.31685075164
          2.6279432774 -4.3343367577 -0.26909843087 7.7430257797 -6.9090485573 -0.35184904933
          6.1598730087 -6.558406353 -0.65553039312 5.0908589363 -4.8941822052 0.35562008619
          -0.35394477844 -0.25667393208 0.10903210193 0 0 0
          3.8782496452 -3.2041516304 0.76147669554 0.54843908548 -0.25219231844 0.31450155377
          0.54379916191 -2.5087165833 -0.16587156057 -0.00043681915849 -0.2935308218 0.043849740177
          -0.38665953279 -0.39650157094 0.035070560873 1.8090515137 -2.6955888271 0.23738488555
          6.190738678 -6.5942592621 -0.32834506035 3.8491327763 -4.5889353752 0.31028813124
          2.6068840027 -4.3426017761 -1.412380044e-07 7.7468323708 -6.9225063324 2.9814398772e-07
          -0.55302816629 -0.95645338297 0.085443101823 0.16157697141 -1.1898590326 0.10751187801
          0 0 0 4.8142538071 -6.3013501167 -0.61515712738
          1.1587728262 -1.1968096495 0.40258005261 2.8613200188 -2.8661570549 0.62036567926
          0.52969044447 -2.537088871 -1.9610767765e-07 6.1983342171 -6.6075124741 1.4837009132e-07
          -0.44998425245 -0.43662530184 -7.0524727391e-08 -0.60295403004 -1.1249184608 0.0067656910978
          4.8201422691 -6.3312544823 -0.30784729123 6.5035686493 -5.1835532188 0.79291778803
          0 0 0 1.232634306 -4.0522904396 -0.46458637714
          5.0616617203 -4.8267827034 0.70546782017 -0.63649153709 -1.1637319326 -4.4397573618e-08
          1.1572284698 -4.1018967628 -0.22887223959 4.8218417168 -6.3421435356 -5.3848365766e-09
          0.077975966036 -0.16394819319 0.081163562834 2.6279432774 -4.3343367577 0.26909816265
          3.521699667 -6.1166939735 -0.58863043785 7.7430257797 -6.9090480804 0.35184964538
          -0.7446616292 -2.2418930531 0.049509912729 1.867856741 -2.5934247971 0.47060778737
          0 0 0 0.54379928112 -2.5087165833 0.16587117314
          3.5042858124 -6.1198120117 -0.29395183921 -0.3866597712 -0.39650154114 -0.035070709884
          -0.80572468042 -2.4400558472 -0.039792601019 6.190738678 -6.5942587852 0.32834535837
          3.8533229828 -4.5263638496 0.61787170172 0.23940211535 -1.0568705797 0.19275465608
          8.7778673172 -8.5843381882 -0.63074666262 0 0 0
          1.1414241791 -4.1207175255 -2.6021268695e-07 7.1779780388 -8.2981500626 -0.61427778006
          8.8076620102 -8.5999250412 -0.31771916151 0 0 0
          0.090467646718 -0.67307901382 -0.10824648291 7.2052836418 -8.3155822754 -0.30703103542
          3.5086128712 -6.1217288971 -1.6382074364e-07 0.03703571111 -0.66496545076 -0.015291947871
          -0.60295403004 -1.1249182224 -0.0067659313791 -0.81134009361 -2.4622471333 3.5632990603e-07
          4.8201422691 -6.3312544823 0.30784729123 5.7244229317 -8.0692415237 -0.60140216351
          0.11342260242 -1.4456245899 -0.22804151475 8.8144416809 -8.6071271896 3.8989639961e-07
          0 0 0 0.055962081999 -1.4607001543 -0.073171436787
          5.7437567711 -8.0816144943 -0.30135408044 7.2134256363 -8.3232526779 2.0452824856e-07
          0.039901223034 -0.70090466738 -4.2119104364e-06 2.6824700832 -4.2873129845 0.53389006853
          2.1521515846 -5.9644875526 -0.64375084639 7.7060623169 -6.8745422363 0.69789582491
          0 0 0 -1.1091529131 -3.5700731277 -0.32078897953
          1.1572285891 -4.101896286 0.22887173295 0.61323279142 -2.4047980309 0.31685039401
          6.1598734856 -6.5584058762 0.65553075075 -0.35394516587 -0.25667387247 -0.10903217643
          1.7202937603 -4.563167572 -0.37595129013 2.0492510796 -5.8961381912 -0.30172419548
          3.5042858124 -6.1198115349 0.29395151138 -0.80572617054 -2.4400565624 0.039791576564
          5.7506055832 -8.0884485245 1.9452331301e-08 0.057853594422 -1.4949233532 -3.0407140912e-06
          4.3745598793 -7.9022593498 -0.60719060898 0.34247103333 -2.5689527988 -0.38361218572
          -0.55302834511 -0.95645302534 -0.085443422198 8.8076620102 -8.5999240875 0.31771996617
          4.8142538071 -6.3013496399 0.61515712738 0 0 0
          1.960745573 -5.8415489197 -3.0100463277e-07 1.6327507496 -4.6973800659 1.9729304768e-06
          4.38615942 -7.9093995094 -0.31105905771 7.2052841187 -8.3155822754 0.30703145266
          0.38502052426 -2.4272351265 -0.15999411047 0.037047047168 -0.66496473551 0.015285640955
          1.2326345444 -4.0522899628 0.46458593011 4.3887729645 -7.9257202148 -1.6279551573e-07
          5.7437567711 -8.0816144943 0.30135414004 0.055994782597 -1.4606887102 0.073163256049
          0.4295489192 -2.4652256966 1.1726440789e-05 9.7687072754 -10.263954163 -0.59451800585
          0 0 0 9.7901544571 -10.276590347 -0.29851809144
          3.5216999054 -6.1166934967 0.58863013983 8.1341590881 -9.9914073944 -0.58031433821
          -0.74466258287 -2.2418925762 -0.049511607736 2.1758277416 -6.3700027466 -0.73833274841
          0.18008054793 -0.76371258497 -0.13855075836 1.7202948332 -4.5631680489 0.37595242262
          2.0492515564 -5.8961381912 0.30172359943 0 0 0
          8.1570730209 -10.006072044 -0.28978261352 2.3542900085 -6.2477321625 -0.44585877657
          0.13229057193 -0.76821142435 -0.058530561626 3.1082079411 -7.6852588654 -0.66315096617
          0.99816054106 -3.770553112 -0.41876742244 8.7778673172 -8.5843372345 0.63074743748
          0 0 0 7.1779780388 -8.2981491089 0.61427819729
          9.7980804443 -10.282212257 4.8658438345e-07 0.63449376822 -3.9601924419 -0.10419080406
          3.1235682964 -7.7130899429 -0.33825471997 0.090486757457 -0.67307573557 0.10824809223
          6.59481287 -9.7674617767 -0.56689745188 0.34789165854 -1.5980422497 -0.22114796937
          0 0 0 4.3861598969 -7.9093990326 0.31105872989
          0.38509401679 -2.4272139072 0.16002419591 8.164730072 -10.01222229 2.6453929536e-07
          1.876837492 -5.6395406723 -1.0288572412e-06 6.6222987175 -9.7810258865 -0.28449133039
          0.31049641967 -1.5983047485 -0.11465195566 0.12842045724 -0.77156573534 -3.305140126e-06
          5.7244234085 -8.0692405701 0.60140222311 0.11349675804 -1.4456351995 0.22804629803
          3.1085662842 -7.7541279793 -3.3525688536e-07 0.78019833565 -4.1164803505 4.1078932554e-05
          2.1521520615 -5.9644875526 0.64375030994 6.6294131279 -9.7885560989 4.4313253511e-08
          0.30205568671 -1.5969314575 6.8459775093e-07 -1.1065872908 -3.5700113773 0.32226797938
          9.7901544571 -10.276590347 0.29851907492 5.1906027794 -9.5950183868 -0.56503671408
          0 0 0 0.54374361038 -2.5995912552 -0.28965476155
          5.2245864868 -9.6104688644 -0.28486976027 8.1570730209 -10.006072044 0.28978314996
          0.13230220973 -0.7682056427 0.058525379747 2.3542904854 -6.2477321625 0.4458578527
          0.48187482357 -2.6549346447 -0.15167143941 4.3745598793 -7.9022583961 0.60719031096
          2.3076915741 -7.4080910683 -0.48679897189 3.1235685349 -7.7130894661 0.33825400472
          0.34274330735 -2.5687346458 0.38370209932 0.63462793827 -3.960316658 0.10435366631
          1.2868064642 -5.6072993279 -0.36259007454 2.6281757355 -7.6634278297 -0.28165441751
          5.2283802032 -9.6208276749 -1.774236722e-07 6.6222991943 -9.7810249329 0.28449141979
          0.31052136421 -1.5982865095 0.11465736479 1.4639894962 -5.9019784927 -0.21629013121
          0.46495625377 -2.6543738842 1.4372203623e-05 10.734677315 -11.922318459 -0.58173120022
          0 0 0 0.17021913826 -0.76521414518 -0.11837162077
          3.0785961151 -8.03723526 -6.323387538e-07 4.0735235214 -9.4343004227 -0.54437333345
          9.0539293289 -11.645194054 -0.55412387848 9.7687072754 -10.263953209 0.59451895952
          0 0 0 0 0 0
          1.6167111397 -5.8966584206 4.6967288654e-05 0.74249511957 -3.9501159191 -0.29680046439
          10.748531342 -11.94297123 -0.29069066048 4.1197652817 -9.4612903595 -0.26875373721
          9.0710372925 -11.668140411 -0.27571895719 8.1341590881 -9.9914064407 0.58031487465
          0.13339684904 -0.78492325544 -0.050689682364 2.1758275032 -6.3700022697 0.73833143711
          0.18010096252 -0.76370728016 0.13855338097 0.77731901407 -4.021071434 -0.14727672935
          5.2245864868 -9.6104688644 0.28486940265 0.48189604282 -2.6549186707 0.15169422328
          7.4246125221 -11.41708374 -0.5201561451 3.1082081795 -7.6852579117 0.6631501317
          0.99800598621 -3.7705755234 0.41869783401 0 0 0
          0.32048887014 -1.6417765617 -0.16923882067 10.7558918 -11.950249672 5.8575591311e-07
          0.13129359484 -0.78898620605 -1.1090324961e-06 4.1266431808 -9.4620265961 -4.2282090362e-07
          7.4520058632 -11.439973831 -0.25975471735 6.59481287 -9.7674608231 0.56689751148
          9.0767765045 -11.675621986 3.273439404e-07 0.3479501009 -1.5979994535 0.22115939856
          0.75393420458 -4.0422468185 4.2345676775e-05 0.28413054347 -1.6808612347 -0.088598668575
          2.6281752586 -7.6634273529 0.28165319562 1.4640982151 -5.9020452499 0.2164106518
          2.2155342102 -7.4762964249 -0.41542011499 7.4585776329 -11.447392464 6.8521877949e-08
          0.27365416288 -1.6892358065 2.9698303479e-06 2.2000727654 -7.5879330635 -0.16248250008
          5.959774971 -11.246584892 -0.49126327038 0 0 0
          0.45566928387 -2.7086446285 -0.20270046592 10.748531342 -11.94297123 0.29069182277
          0.13340295851 -0.78491616249 0.050689134747 4.1197652817 -9.4612903595 0.26875287294
          5.9977812767 -11.267288208 -0.24363540113 5.1906032562 -9.5950174332 0.56503635645
          9.0710372925 -11.668140411 0.27571961284 3.0418994427 -9.3186273575 -0.41772246361
          1.1428188086 -5.5608000755 -0.27821084857 0.54375606775 -2.5995593071 0.28967881203
          0.44023311138 -2.7611808777 -0.10338420421 0.77733117342 -4.0210914612 0.14732168615
          3.108174324 -9.3701400757 -0.19972501695 1.1186896563 -5.6480016708 -0.12251105905
          2.1267602444 -7.6129727364 2.7052248697e-05 2.3076910973 -7.4080896378 0.48679760098
          7.45200634 -11.439973831 0.25975483656 1.2870185375 -5.6075496674 0.36269301176
          6.0037140846 -11.272848129 -1.9077343438e-07 0.28413906693 -1.6808499098 0.088605009019
          0.4318574369 -2.7758979797 1.163975503e-05 3.1699624062 -9.3625583649 -7.5266655131e-07
          1.1092336178 -5.7093372345 4.4007654651e-05 0.62180525064 -4.0198631287 -0.21135857701
          4.7654147148 -11.132853508 -0.45137047768 10.734677315 -11.922317505 0.58173239231
          0 0 0 2.2001094818 -7.5879440308 0.16252666712
          0.1702324152 -0.76520270109 0.11837546527 0.60722535849 -4.0824017525 -0.10562469065
          4.0735235214 -9.434299469 0.54437243938 9.0539302826 -11.6451931 0.55412459373
          4.8020582199 -11.149518967 -0.22794108093 11.709457397 -13.61070919 -0.58150905371
          0 0 0 0.74255669117 -3.9501235485 0.2968673408
          11.716921806 -13.642074585 -0.2887609303 0.11118462682 -0.75584924221 -0.073672026396
          9.9666976929 -13.323297501 -0.53448712826 5.9977812767 -11.267287254 0.2436350137
          0 0 0 0.44023939967 -2.7611732483 0.10340814292
          9.9763250351 -13.356150627 -0.26635122299 0.088182792068 -0.78731787205 -0.031339623034
          3.1081745625 -9.370139122 0.19972358644 1.1187167168 -5.6480531693 0.12259069085
          7.4246125221 -11.417082787 0.52015626431 0.60221976042 -4.1032457352 2.1350084353e-05
          4.8159379959 -11.153600693 -4.6184194957e-07 0.32050409913 -1.6417602301 0.16925004125
          2.8414773941 -9.7206039429 -0.5290453434 0.211461097 -1.6652532816 -0.099173717201
          8.2223110199 -13.057509422 -0.4831212461 1.5057308674 -7.3509755135 -0.26900976896
          11.72176075 -13.651444435 6.9035212391e-07 0 0 0
          2.8590402603 -9.6829862595 -0.24757353961 9.9797649384 -13.365653038 3.9560751475e-07
          0.086288899183 -0.79430389404 2.7412781378e-07 8.2401714325 -13.09144783 -0.23712301254
          0.19381153584 -1.7121983767 -0.051431387663 1.5454442501 -7.4505519867 -0.13563835621
          2.2155690193 -7.4763021469 0.4154445231 2.8832368851 -9.6971406937 -8.3623939418e-07
          0.81076031923 -5.5702857971 -0.20028227568 0.60723090172 -4.082406044 0.10567171872
          3.5971050262 -11.017668724 -0.45904871821 8.2447071075 -13.098262787 9.7947868483e-08
          5.9597754478 -11.246583939 0.49126288295 4.8020582199 -11.149518013 0.22794015706
          1.5670835972 -7.4802913666 2.9272910979e-05 0.18729820848 -1.7256444693 3.8753637455e-06
          0.45569145679 -2.7086296082 0.20272611082 11.716921806 -13.642074585 0.28876233101
          6.6066741943 -12.918711662 -0.41300997138 0.82164591551 -5.635081768 -0.098288990557
          0.30796760321 -2.760061264 -0.11661928147 3.6121695042 -11.024945259 -0.2195597291
          3.0418996811 -9.3186273575 0.41772133112 1.1428242922 -5.5608448982 0.2782638371
          0 0 0 0.29485583305 -2.8176832199 -0.060203649104
          9.9763250351 -13.356150627 0.26635202765 0.088185220957 -0.78731316328 0.03134091571
          6.6336832047 -12.940465927 -0.21245500445 0.82179260254 -5.6580929756 2.9536404327e-05
          3.6198811531 -11.030194283 -7.0210774084e-07 2.8590397835 -9.6829853058 0.24757175148
          6.6385421753 -12.948788643 -2.0269099821e-07 0.28987941146 -2.8345417976 1.0179462151e-05
          8.2401714325 -13.091446877 0.23712322116 0.19381511211 -1.712192297 0.051440197974
          1.5454710722 -7.4505777359 0.13569380343 0.62181174755 -4.0198664665 0.21139410138
          4.7654147148 -11.132851601 0.45136958361 5.3503389359 -12.858050346 -0.42640015483
          11.709457397 -13.610708237 0.58151042461 0 0 0
          0.40383297205 -4.0743632317 -0.1252899915 0.11119055003 -0.75584250689 0.073676429689
          9.9666986465 -13.323295593 0.53448796272 0.82165199518 -5.6350975037 0.098342955112
          3.612169981 -11.024944305 0.21955832839 5.3714537621 -12.870409012 -0.21397775412
          1.9724123478 -9.2845420837 -0.20168271661 0.39963153005 -4.1338143349 -0.063561961055
          0.29485881329 -2.8176789284 0.060224123299 6.6336832047 -12.940465927 0.21245460212
          1.988888979 -9.3543262482 -0.13536678255 3.0848653316 -11.090272903 -0.46827921271
          1.0619701147 -7.2940540314 -0.17852440476 12.697384834 -15.387062073 -0.58132529259
          0 0 0 10.873462677 -15.097379684 -0.52854549885
          2.8414764404 -9.7206029892 0.52904325724 0.21147155762 -1.665243268 0.099184475839
          8.2223119736 -13.057508469 0.48312145472 1.0701838732 -7.3542499542 -0.08542085439
          3.1634869576 -11.116327286 -0.22566905618 1.5057697296 -7.3510260582 0.26905789971
          12.700267792 -15.422680855 -0.28855198622 0 0 0
          0.39661985636 -4.152589798 1.7192691303e-05 5.3830595016 -12.884739876 -4.7533782777e-07
          0.03612203151 -0.74490439892 -0.019787602127 10.875835419 -15.133898735 -0.26323670149
          0.030331537127 -0.78031420708 -0.0082525433972 1.9895650148 -9.3490591049 1.5302421161e-05
          9.0657596588 -14.814878464 -0.46655836701 1.0716761351 -7.3784513474 2.611288437e-05
          3.1979432106 -11.140192032 -8.565705798e-07 12.701851845 -15.433200836 8.0723134488e-07
          0 0 0 0.077584296465 -1.6613217592 -0.025874080136
          9.0657119751 -14.852900505 -0.23148015141 10.877632141 -15.143873215 4.7592590136e-07
          0.81077390909 -5.5703034401 0.20032826066 3.5971055031 -11.01766777 0.4590472877
          0.029771734029 -0.78870338202 9.3669001444e-07 0.071641333401 -1.7125991583 -0.013488727622
          6.6066741943 -12.918710709 0.41300958395 0.30797609687 -2.760052681 0.11664009094
          0.51379179955 -5.5984053612 -0.12539725006 4.3688135147 -12.782306671 -0.445956707
          0.39963334799 -4.1338148117 0.063594356179 5.3714537621 -12.870408058 0.21397677064
          0.51275128126 -5.6531233788 -0.062506087124 4.396171093 -12.808146477 -0.21384824812
          1.9889007807 -9.3543319702 0.13539473712 9.068397522 -14.859791756 1.3541391297e-07
          0.069427609444 -1.7280329466 3.9322699195e-06 7.0876612663 -14.543563843 -0.37839111686
          1.0701922178 -7.354265213 0.085470795631 3.1634857655 -11.116326332 0.22566720843
          12.700267792 -15.422680855 0.28855359554 0 0 0
          0.12301517278 -2.7705824375 -0.033186230808 7.0958485603 -14.574591637 -0.20170949399
          10.875835419 -15.133897781 0.26323765516 0.11634347588 -2.8305766582 -0.017164519057
          0.51146554947 -5.672223568 2.0785952074e-05 4.4025096893 -12.818695068 -7.2235809512e-07
          0.030332876369 -0.78031146526 0.0082548893988 9.0657119751 -14.852900505 0.23148043454
          7.1040463448 -14.585587502 -1.9984575772e-07 0.11392489821 -2.8491754532 8.2065171227e-06
          5.3503389359 -12.858048439 0.42639914155 2.4390137196 -10.975358963 -0.22876498103
          0.07164337486 -1.7125953436 0.013496974483 0.40384081006 -4.074359417 0.12532152236
          1.344369173 -9.0867033005 -0.15336690843 2.4406151772 -11.053548813 -0.13260069489
          1.9724187851 -9.2845525742 0.20170506835 1.3578692675 -9.1437425613 -0.073936872184
          0.51275312901 -5.6531276703 0.062546543777 4.396171093 -12.808145523 0.21384672821
          3.0848639011 -11.090270996 0.46827670932 1.0619735718 -7.2940711975 0.17856556177
          0.16757322848 -4.0976753235 -0.043297976255 5.9206104279 -14.427275658 -0.43480268121
          12.697384834 -15.387061119 0.58132696152 0 0 0
          10.873462677 -15.097378731 0.52854645252 0.15896451473 -4.1578755379 -0.022382782772
          2.4535233974 -11.064763069 5.2987666095e-06 0.63792741299 -7.2764205933 -0.11759462208
          3.4882485867 -12.707784653 -0.33624717593 5.9395027161 -14.451189995 -0.20874734223
          0.03612639755 -0.74489992857 0.019791668281 1.3634263277 -9.1682748795 1.7449181541e-05
          7.0958485603 -14.574591637 0.20170910656 0.11634524912 -2.8305735588 0.017180964351
          3.5355913639 -12.770002365 -0.1770067215 0.64330279827 -7.3240294456 -0.057977419347
          9.0657596588 -14.81487751 0.46655866504 0.15635515749 -4.1774635315 1.2376168343e-05
          5.9482150078 -14.463786125 -5.7787411833e-07 0.077590584755 -1.6613153219 0.025883441791
          3.558480978 -12.790255547 -1.1587181916e-06 13.674395561 -17.268777847 -0.57636374235
          0 0 0 0.64373135567 -7.3422260284 2.031871918e-05
          13.675509453 -17.300701141 -0.28714409471 0 0 0
          2.4406170845 -11.053548813 0.1326097697 11.775589943 -16.989562988 -0.53273272514
          0.51379442215 -5.5984072685 0.12543326616 4.3688130379 -12.782304764 0.44595497847
          -0.045742999762 -0.73119276762 0.037252228707 1.3578753471 -9.1437501907 0.073970466852
          11.774451256 -17.020856857 -0.26512148976 -0.033765181899 -0.76733464003 0.01585264504
          7.0876617432 -14.543561935 0.37839075923 13.674967766 -17.310733795 9.4372182957e-07
          0.15896567702 -4.1578736305 0.022407379001 9.8762197495 -16.741868973 -0.48893883824
          -0.070681616664 -1.6325756311 0.051388520747 5.9395027161 -14.451189995 0.20874617994
          0 0 0 4.923948288 -14.316460609 -0.38635098934
          0.20199626684 -5.6299724579 -0.055616330355 0.12302182615 -2.770575285 0.033202718943
          -0.062983036041 -1.6867864132 0.026595182717 9.8681459427 -16.769735336 -0.24361351132
          11.774790764 -17.030412674 5.7389490848e-07 3.5355901718 -12.770000458 0.17700448632
          0.1942640692 -5.6832480431 -0.028585448861 4.9513635635 -14.35383606 -0.19231940806
          0.64330458641 -7.3240351677 0.058016300201 -0.032869096845 -0.77593261003 1.0345041801e-06
          1.6106363535 -10.88120842 -0.13811151683 9.8688650131 -16.78033638 1.9609819901e-07
          2.4390103817 -10.975363731 0.22877381742 -0.060596831143 -1.7028671503 3.2749380807e-06
          0.19207777083 -5.70181036 1.5057817109e-05 1.6236823797 -10.935036659 -0.064568027854
          4.9581179619 -14.361901283 -9.3018763891e-07 1.3443720341 -9.0867166519 0.15339688957
          13.675509453 -17.300701141 0.28714600205 7.9274544716 -16.502977371 -0.47179338336
          0.77840125561 -9.0356664658 -0.10544719547 0 0 0
          -0.078702248633 -2.7372457981 0.054889049381 2.7435815334 -12.870928764 -0.27763006091
          -0.080408737063 -2.8030276299 0.02792532742 7.9151310921 -16.529500961 -0.22421494126
          11.774451256 -17.02085495 0.26512265205 0.78530490398 -9.0753211975 -0.051231496036
          2.7795262337 -12.94246006 -0.10683637857 -0.03376429528 -0.76733285189 -0.015850353986
          0.16757759452 -4.0976691246 0.043321095407 5.9206104279 -14.427274704 0.43480148911
          1.6225290298 -10.954872131 9.2713198683e-06 0.63792818785 -7.2764248848 0.11762937903
          3.4882469177 -12.707781792 0.33624511957 7.9199624062 -16.539175034 -1.8537159008e-07
          9.8681459427 -16.769733429 0.24361391366 0.78617709875 -9.0928869247 1.5928351786e-05
          -0.062981590629 -1.6867837906 -0.026588371024 -0.080366551876 -2.8231697083 6.1792256929e-06
          0.19426454604 -5.6832480431 0.028614772484 4.9513635635 -14.353835106 0.19231757522
          2.7664029598 -12.958137512 -1.5701444909e-06 3.8750462532 -14.292650223 -0.31146514416
          0.22401863337 -7.308619976 -0.065878912807 3.8785812855 -14.340403557 -0.1512593329
          0.21935814619 -7.3519353867 -0.033996112645 13.674395561 -17.26877594 0.5763656497
          0 0 0 1.6236842871 -10.935038567 0.06458607316
          -0.086531706154 -4.0839328766 0.041668511927 6.8182201385 -16.209884644 -0.41303083301
          -0.098934866488 -4.150967598 0.020380057395 11.775589943 -16.989561081 0.53273385763
          -0.045739900321 -0.73118966818 -0.037248831242 6.8469715118 -16.243024826 -0.1909045279
          7.9151310921 -16.529500961 0.22421456873 0.78530615568 -9.0753250122 0.051262408495
          -0.080407373607 -2.8030250072 -0.027912957594 2.7795259953 -12.942459106 0.10683345795
          3.869862318 -14.341168404 -1.2767162616e-06 0.21823686361 -7.3692202568 1.5028446796e-05
          9.8762197495 -16.741867065 0.48893925548 -0.070676937699 -1.6325706244 -0.051381092519
          4.9239478111 -14.316458702 0.3863491714 -0.10142382234 -4.1727166176 8.8961141955e-06
          0.20199804008 -5.6299681664 0.055643603206 6.841917038 -16.247816086 -8.0084009824e-07
          14.629615784 -19.229963303 -0.56798088551 0 0 0
          1.6106331348 -10.881213188 0.13812769949 3.8785810471 -14.340403557 0.1512568742
          0 0 0 12.66221714 -18.958490372 -0.53413212299
          0.93333244324 -10.816942215 -0.09091796726 0.21935810149 -7.3519363403 0.03402543813
          -0.12622135878 -0.72044926882 0.091807328165 1.8646041155 -12.691433907 -0.085074529052
          14.630984306 -19.255361557 -0.28369373083 7.9274549484 -16.502975464 0.47179305553
          12.661961555 -18.982847214 -0.26701560616 -0.094859965146 -0.75125902891 0.039190836251
          0.77839809656 -9.0356702805 0.10547488183 0.93935322762 -10.8523283 -0.044026393443
          -0.078697673976 -2.7372398376 -0.054876636714 5.4188451767 -16.032463074 -0.33956864476
          -0.098934039474 -4.1509652138 -0.02036252059 2.7435810566 -12.870926857 0.27762761712
          -0.12063124031 -5.6619963646 0.014458796941 6.8469715118 -16.243022919 0.19090293348
          1.8670085669 -12.745643616 -0.059027466923 -0.13901938498 -5.71981287 0.0052941539325
          5.4384336472 -16.065223694 -0.17195777595 10.703596115 -18.70513916 -0.50468665361
          14.629834175 -19.263599396 1.1029597999e-06 -0.22163958848 -1.5795071125 0.13478268683
          0 0 0 10.697854042 -18.727621078 -0.25195196271
          -0.19551187754 -1.6337832212 0.069438248873 12.661531448 -18.990987778 6.9259363045e-07
          2.8836796284 -14.381124496 -0.16609179974 0.94157016277 -10.868574142 1.0360972738e-05
          1.8712967634 -12.758378029 3.7166373659e-06 0.24286314845 -9.053691864 -0.069794990122
          -0.092481024563 -0.75907325745 8.2613939867e-07 2.8854267597 -14.458362579 -0.10289085656
          5.4407405853 -16.073329926 -1.0550722891e-06 0.2428303808 -9.0890617371 -0.035769999027
          -0.14265678823 -5.7406363487 1.0507525985e-05 3.8750455379 -14.292649269 0.31146281958
          10.696685791 -18.735420227 2.7418647619e-07 0.22401706874 -7.308617115 0.065905831754
          -0.18777815998 -1.6486051083 2.4054654659e-06 8.729101181 -18.463098526 -0.47746792436
          14.630984306 -19.25535965 0.2836959362 2.8875386715 -14.466162682 -1.3622009192e-06
          -0.29034212232 -2.6564509869 0.15636979043 -0.086528465152 -4.0839262009 -0.041651528329
          0.24325452745 -9.1051235199 1.2704624169e-05 6.8182196617 -16.209884644 0.41302922368
          0 0 0 8.7228317261 -18.482351303 -0.23895151913
          -0.28248804808 -2.7306954861 0.081315889955 12.661962509 -18.982847214 0.26701700687
          0.93935316801 -10.852330208 0.044046554714 1.8670079708 -12.745643616 0.059034399688
          -0.094859324396 -0.75125777721 -0.039189040661 5.4384336472 -16.065223694 0.17195567489
          -0.13901923597 -5.7198114395 -0.0052734869532 10.697854042 -18.727621078 0.25195249915
          8.7205619812 -18.490274429 -1.4710124674e-07 4.2788090706 -15.906640053 -0.28558173776
          -0.2006161958 -7.3887138367 -0.018996221945 -0.27852639556 -2.7511351109 4.3155996536e-06
          -0.19551078975 -1.6337813139 -0.069433264434 -0.21473065019 -7.4353294373 -0.010734525509
          2.8854265213 -14.458361626 0.10288794339 4.2771840096 -15.96003437 -0.14755098522
          0.24282971025 -9.0890626907 0.035794727504 7.303964138 -18.036392212 -0.23823983967
          14.629616737 -19.229961395 0.56798309088 0 0 0
          -0.35983997583 -4.0248146057 0.14437553287 7.3248949051 -18.000947952 -0.14850182831