<?xml version="1.0"?>
<VTKFile type="UnstructuredGrid" version="0.1" byte_order="LittleEndian" header_type="UInt32" compressor="vtkZLibDataCompressor">
  <UnstructuredGrid>
    <Piece NumberOfPoints="6405" NumberOfCells="4800">
      <PointData>
        <DataArray type="Float32" Name="DISPLACEMENT" NumberOfComponents="3" ComponentName0="X-DISPLACEMENT" ComponentName1="Y-DISPLACEMENT" ComponentName2="Z-DISPLACEMENT" format="ascii" RangeMin="0" RangeMax="394.88744352">
          0 0 0 0 0 0
          2.5714185238 -1.3901042938 -1.2101428509 0 0 0
          1.54545784 -0.72976452112 -0.83873564005 0 0 0
          2.3514664173 -1.6140170097 -0.48223134875 1.3406949043 -0.92811644077 -0.34083968401
          0 0 0 4.7443985939 -2.8319706917 -1.2836250067
          0 0 0 4.67101717 -3.1131477356 -0.65369385481
          3.1192195415 -2.3005633354 -0.94272041321 0 0 0
          0 0 0 2.3673114777 -1.6827327013 8.258508899e-08
          0.86200237274 -0.44988939166 -0.49955806136 1.3340566158 -0.96625417471 4.32521432e-08
          3.0434055328 -2.5407443047 -0.47918137908 0.73522341251 -0.63662540913 -0.20126983523
          4.6241464615 -3.1920983791 1.72438817e-07 1.746252656 -1.9281312227 -0.58766031265
          0 0 0 3.0013782978 -2.6148982048 9.6346504108e-08
          1.6754039526 -2.1525466442 -0.30024051666 0 0 0
          6.7674942017 -4.94526577 -1.2318079472 0 0 0
          0.72777795792 -0.66815775633 3.1369342679e-09 0 0 0
          0 0 0 2.3514664173 -1.6140168905 0.48223149776
          4.6140475273 -4.4308891296 -0.92043894529 6.7760152817 -5.1807026863 -0.62242507935
          0.15219184756 -0.3650624454 -0.15201273561 1.3406950235 -0.92811632156 0.34083977342
          4.6174898148 -4.6547455788 -0.46730434895 0.060894589871 -0.55294728279 -0.070918381214
          1.6424202919 -2.2164201736 1.7352578041e-08 4.6710166931 -3.1131474972 0.65369421244
          0 0 0 0 0 0
          0.36062642932 -1.7848107815 -0.25253978372 2.6890945435 -4.0802898407 -0.61648565531
          6.7572307587 -5.2595386505 2.7482289511e-07 3.0434057713 -2.5407443047 0.47918155789
          2.6632580757 -4.2913384438 -0.31261771917 0.73522341251 -0.63662534952 0.20126985013
          4.6038222313 -4.7256851196 1.579732043e-07 0.28845632076 -1.9968377352 -0.13513107598
          0.038345642388 -0.58539789915 -3.9842767308e-08 0 0 0
          8.6650714874 -7.5448789597 -1.1215538979 0 0 0
          6.0572495461 -7.0669550896 -0.86667692661 1.6754039526 -2.1525464058 0.30024054646
          8.7019796371 -7.7362828255 -0.56427210569 2.5714185238 -1.3901041746 1.2101430893
          0 0 0 0 0 0
          0.26096025109 -2.0601608753 -6.4231556962e-08 2.64802742 -4.356256485 3.9463895263e-08
          -0.49879735708 -0.53507369757 0.14378210902 6.0857982635 -7.2535376549 -0.43602266908
          1.54545784 -0.72976440191 0.83873569965 0.7321896553 -3.8983163834 -0.32650998235
          0 0 0 6.7760152817 -5.1807022095 0.62242567539
          -0.55237859488 -0.72122788429 0.056032415479 0.68667066097 -4.0948419571 -0.16819921136
          4.6174898148 -4.6547451019 0.46730464697 0.060894615948 -0.55294716358 0.070918306708
          3.6607003212 -6.7277765274 -0.61716073751 -0.81470441818 -1.8798956871 0.028182441369
          8.6977806091 -7.7993516922 3.80935262e-07 4.7443985939 -2.8319704533 1.2836253643
          0 0 0 0 0 0
          3.6548910141 -6.9049363136 -0.30993920565 3.11921978 -2.300563097 0.94272059202
          6.0876784325 -7.3142924309 2.2332352501e-07 -0.895157516 -2.0701053143 0.015907049179
          0.86200237274 -0.44988924265 0.49955806136 -0.59086275101 -0.77011662722 -9.3026848447e-08
          0.67120790482 -4.1557245255 -7.855618378e-08 2.6632580757 -4.2913384438 0.31261780858
          0.28845638037 -1.996837616 0.13513095677 3.6502254009 -6.9617147446 6.7217833077e-08
          1.746252656 -1.9281308651 0.58766037226 -0.92043286562 -2.1337819099 -1.436082897e-07
          1.2465112209 -6.5343093872 -0.38436099887 8.7019796371 -7.7362828255 0.56427288055
          6.7674942017 -4.9452652931 1.2318085432 0 0 0
          10.414189339 -10.542425156 -1.0172563791 0 0 0
          0 0 0 -0.94567227364 -3.9365808964 -0.085616983473
          1.2155970335 -6.6952395439 -0.19260205328 10.454659462 -10.69315815 -0.50906437635
          7.4346780777 -10.096515656 -0.81416994333 6.0857982635 -7.253537178 0.43602311611
          -1.0123757124 -0.85907101631 0.4174644053 0 0 0
          4.6140475273 -4.4308886528 0.92043924332 0.15219187737 -0.36506226659 0.152012676
          -1.0246366262 -4.0971946716 -0.042685516179 -0.55237865448 -0.72122776508 -0.056032586843
          -1.0412141085 -1.0225843191 0.17067934573 0.68667072058 -4.0948414803 0.16819904745
          7.4668097496 -10.245841026 -0.40701147914 3.6548910141 -6.9049363136 0.30993932486
          1.207459569 -6.7476181984 -8.6432422108e-08 10.456575394 -10.743009567 4.8177287226e-07
          -1.7500880957 -2.2003483772 0.23117384315 -0.895157516 -2.0701050758 -0.015907334164
          0 0 0 4.6480278969 -9.7679414749 -0.61456209421
          0.36062648892 -1.7848104239 0.25253966451 2.6890947819 -4.0802893639 0.61648577452
          -1.0461144447 -4.1542358398 -1.8914185773e-07 7.4734630585 -10.294270515 2.8427254506e-07
          -1.0876264572 -1.0710382462 -1.4531885029e-07 -1.8603364229 -2.3508193493 0.13099093735
          4.6479511261 -9.9088020325 -0.30635347962 8.6650714874 -7.5448784828 1.1215546131
          0 0 0 -0.89284700155 -6.5436944962 -0.2025590688
          6.0572495461 -7.0669541359 0.86667734385 -1.884260416 -2.4095437527 -2.2076639539e-07
          -0.96441280842 -6.6596255302 -0.099239118397 4.6475639343 -9.9541378021 9.0424400412e-08
          -0.49879744649 -0.53507351875 -0.14378227293 1.2155971527 -6.6952390671 0.19260187447
          1.8548362255 -9.5633163452 -0.43115499616 10.454658508 -10.69315815 0.50906533003
          -2.2489368916 -4.2268486023 0.028219740838 0.73218977451 -3.8983159065 0.32650983334
          0 0 0 -1.0246366262 -4.0971941948 0.042685132474
          1.8304957151 -9.6867980957 -0.21468520164 -1.0412139893 -1.0225841999 -0.17067961395
          -2.3852674961 -4.317522049 0.025340311229 7.4668097496 -10.245841026 0.40701204538
          3.6607003212 -6.7277760506 0.61716091633 -0.81470453739 -1.8798953295 -0.028182731941
          12.018284798 -13.849043846 -0.92711937428 0 0 0
          -0.98171454668 -6.7053494453 -2.4217521855e-07 8.7430582047 -13.433978081 -0.76879429817
          12.05474472 -13.966013908 -0.46292200685 0 0 0
          -1.2271001339 -1.2415999174 0.57563173771 8.7720508575 -13.550069809 -0.38318291306
          1.8256618977 -9.7278013229 -1.0227680747e-07 -1.2535260916 -1.3583720922 0.26097476482
          -1.8603364229 -2.3508193493 -0.13099138439 -2.4192993641 -4.3678412437 -3.0394201644e-07
          4.6479511261 -9.9088020325 0.30635365844 5.6397843361 -13.116438866 -0.61234986782
          -1.9176677465 -2.6815626621 0.28735080361 12.058078766 -14.0044384 5.7224985994e-07
          0 0 0 -2.16883111 -2.7855336666 0.17791324854
          5.6406035423 -13.223852158 -0.30438151956 8.77917099 -13.587362289 3.3642848507e-07
          -1.2958608866 -1.3979794979 -1.3423883161e-07 1.2465113401 -6.5343084335 0.38436079025
          -0.68203312159 -9.546913147 -0.30853828788 10.414189339 -10.542424202 1.0172573328
          0 0 0 -2.5234322548 -6.858130455 -0.20687399805
          -0.96441286802 -6.6596250534 0.099238619208 -0.94567239285 -3.9365804195 0.085616581142
          7.4346780777 -10.096514702 0.81417053938 -1.0123757124 -0.8590708375 -0.41746464372
          -2.6612443924 -6.8723268509 -0.086748272181 -0.74394255877 -9.6190757751 -0.15220321715
          1.8304958344 -9.6867980957 0.21468499303 -2.3852672577 -4.3175215721 -0.025340920314
          5.6412572861 -13.25790596 1.0492747293e-07 -2.2688159943 -2.8381958008 -2.661510905e-07
          2.5364518166 -12.905675888 -0.47376030684 -2.3446276188 -4.8347115517 -0.11204833537
          -1.7500880957 -2.2003481388 -0.23117427528 12.05474472 -13.966012955 0.46292316914
          4.6480278969 -9.7679405212 0.61456227303 0 0 0
          -0.75694233179 -9.6542387009 -3.0298906495e-07 -2.6916744709 -6.9063425064 -3.9918214156e-07
          2.5155088902 -12.993684769 -0.23560070992 8.7720508575 -13.550068855 0.38318356872
          -2.6388895512 -4.8258719444 -0.032759726048 -1.2535262108 -1.3583720922 -0.26097503304
          -0.89284718037 -6.5436935425 0.20255853236 2.5123822689 -13.023460388 -1.2467643273e-07
          5.6406035423 -13.223852158 0.30438172817 -2.1688313484 -2.7855336666 -0.17791378498
          -2.7256505489 -4.8466258049 -3.759692504e-07 13.491229057 -17.393789291 -0.85130435228
          0 0 0 13.522212029 -17.482666016 -0.42472928762
          1.8548363447 -9.5633153915 0.43115478754 9.9856109619 -17.006565094 -0.73046714067
          -2.2489368916 -4.2268481255 -0.028220333159 -2.5751965046 -9.8896341324 -0.43538558483
          -2.0717492104 -1.5741391182 0.79606622458 -2.6612443924 -6.8723263741 0.086747474968
          -0.74394261837 -9.6190748215 0.1522026062 0 0 0
          10.010289192 -17.09446907 -0.36361399293 -2.6958694458 -9.8330965042 -0.1955076009
          -2.0703127384 -1.7264111042 0.33208543062 -0.32193166018 -12.868585587 -0.40698468685
          -2.3977477551 -7.6802749634 -0.53156429529 12.018284798 -13.849042892 0.92712050676
          0 0 0 8.7430582047 -13.433977127 0.76879495382
          13.525512695 -17.511680603 6.4723229798e-07 -2.6655445099 -7.5645451546 -0.25160521269
          -0.37504127622 -12.900184631 -0.20089578629 -1.2271003723 -1.2415997982 -0.57563203573
          6.628757 -16.701194763 -0.61087030172 -2.9760956764 -2.9972782135 0.45467361808
          0 0 0 2.5155088902 -12.993684769 0.2356004566
          -2.6388897896 -4.8258714676 0.032758947462 10.016630173 -17.122198105 3.7421142451e-07
          -2.719871521 -9.8577480316 -5.0219591685e-07 6.6297774315 -16.779378891 -0.30339846015
          -3.3075563908 -3.1554965973 0.23793545365 -2.0274837017 -1.7874586582 -1.8360573506e-07
          5.6397843361 -13.116437912 0.61235004663 -1.9176682234 -2.6815624237 -0.28735136986
          -0.38398849964 -12.924901962 -3.6516996715e-07 -2.7205092907 -7.5639462471 -5.0546833563e-07
          -0.6820333004 -9.5469121933 0.30853763223 6.6306977272 -16.803504944 1.0677280926e-07
          -3.4812548161 -3.2299931049 -3.3978832903e-07 -2.5234322548 -6.8581299782 0.20687319338
          13.522212029 -17.482666016 0.42473059893 3.2768056393 -16.48871994 -0.51215481758
          0 0 0 -3.7334024906 -5.2382259369 -0.096148192883
          3.2592737675 -16.544948578 -0.25499692559 10.010289192 -17.094467163 0.36361473799
          -2.0703132153 -1.7264111042 -0.33208575845 -2.6958692074 -9.8330965042 0.19550660253
          -4.0750551224 -5.2126812935 -0.081299364567 2.5364518166 -12.905674934 0.47376003861
          -2.4076097012 -13.210215569 -0.63207554817 -0.37504136562 -12.900183678 0.20089504123
          -2.344628334 -4.8347110748 0.1120474413 -2.6655452251 -7.5645446777 0.25160411
          -2.3149085045 -11.026641846 -0.98146539927 -2.5055069923 -13.10193634 -0.29273512959
          3.2573392391 -16.564748764 -1.5766296713e-07 6.6297774315 -16.779378891 0.30339866877
          -3.3075566292 -3.1554965973 -0.2379361093 -2.5199408531 -10.842055321 -0.47347977757
          -4.1591534615 -5.2026548386 -5.2700528386e-07 14.851564407 -21.115970612 -0.78888750076
          0 0 0 -1.2057915926 -1.9823321104 0.74693322182
          -2.5218904018 -13.118127823 -6.2250205701e-07 0.17399485409 -16.438383102 -0.49882405996
          11.169571877 -20.752531052 -0.69845539331 13.491229057 -17.393789291 0.85130560398
          0 0 0 0 0 0
          -2.5635597706 -10.847505569 -5.920953754e-07 -3.8795492649 -8.0493402481 -0.74681919813
          14.877126694 -21.182163239 -0.3935251236 0.12900410593 -16.433509827 -0.24659833312
          11.190167427 -20.817529678 -0.34746545553 9.9856109619 -17.006565094 0.73046785593
          -1.0347583294 -2.0040576458 0.25057178736 -2.5751962662 -9.8896331787 0.43538460135
          -2.0717499256 -1.5741391182 -0.7960665822 -4.1825137138 -7.8833408356 -0.39731508493
          3.2592737675 -16.544948578 0.25499662757 -4.0750555992 -5.2126808167 0.081298291683
          7.6112904549 -20.458463669 -0.60905492306 -0.32193183899 -12.868584633 0.40698394179
          -2.3977489471 -7.6802740097 0.5315631032 0 0 0
          -2.2364096642 -3.7912142277 -0.0084669580683 14.880180359 -21.203611374 7.0226616344e-07
          -1.0554727316 -2.0975697041 -1.6840735384e-07 0.12336543947 -16.44931221 -4.3117194082e-07
          7.6133337021 -20.512666702 -0.30253973603 6.628757 -16.701194763 0.61087048054
          11.195612907 -20.837514877 3.9475202129e-07 -2.9760961533 -2.9972782135 -0.45467427373
          -4.2219052315 -7.8464436531 -6.7159135142e-07 -2.5459353924 -3.8521735668 0.093429982662
          -2.5055067539 -13.10193634 0.2927339077 -2.5199410915 -10.842054367 0.47347846627
          -2.0442917347 -14.343278885 -1.2384351492 7.6146178246 -20.528778076 9.3583381044e-08
          -2.5074090958 -4.0939688683 -4.2877280748e-07 -2.1447980404 -14.159110069 -0.60301089287
          4.0619735718 -20.246564865 -0.54435163736 0 0 0
          -2.2866923809 -7.1386823654 -1.1130080223 14.877126694 -21.182163239 0.39352652431
          -1.0347584486 -2.0040576458 -0.25057208538 0.12900397182 -16.433509827 0.24659746885
          4.0497193336 -20.276428223 -0.27131569386 3.2768054008 -16.48871994 0.51215451956
          11.190166473 -20.817527771 0.34746623039 -2.0019981861 -16.76171875 -0.80694115162
          -3.1931402683 -11.854990959 -1.3779765368 -3.7334032059 -5.2382254601 0.0961471349
          -2.504806757 -7.0270872116 -0.42341452837 -4.1825146675 -7.8833403587 0.39731359482
          -2.0760948658 -16.619773865 -0.38070136309 -3.3053956032 -11.767458916 -0.66900116205
          -2.161989212 -14.146169662 -9.3742272611e-07 -2.4076094627 -13.210215569 0.63207447529
          7.6133337021 -20.512664795 0.30253991485 -2.3149087429 -11.026639938 0.98146373034
          4.0490908623 -20.288360596 -2.0277526858e-07 -2.5459353924 -3.8521735668 -0.09343072027
          -2.559592247 -6.9974303246 -7.7516381225e-07 -2.0783827305 -16.631914139 -7.3073317708e-07
          -3.2965636253 -11.80741787 -1.0641523431e-06 -2.2086279392 -9.7498474121 -1.326312542
          0.7818890214 -20.199245453 -0.58090150356 14.851564407 -21.115968704 0.78888893127
          0 0 0 -2.1447980404 -14.159110069 0.60300910473
          -1.205791831 -1.9823322296 -0.74693351984 -2.3004667759 -9.787232399 -0.62647068501
          0.17399461567 -16.438383102 0.4988231957 11.169571877 -20.752531052 0.69845616817
          0.7489066124 -20.162267685 -0.28734391928 16.119953156 -24.965885162 -0.73959583044
          0 0 0 -3.8795502186 -8.0493392944 0.74681729078
          16.140398026 -25.014917374 -0.36893883348 0.15396884084 -3.2407631874 -0.32696130872
          12.304361343 -24.621191025 -0.67218971252 4.0497193336 -20.276428223 0.27131527662
          0 0 0 -2.504806757 -7.0270876884 0.42341303825
          12.321274757 -24.668922424 -0.33432936668 0.17006002367 -3.1444342136 -0.029431018978
          -2.0760946274 -16.619773865 0.38069999218 -3.3053975105 -11.767457008 0.66899907589
          7.611289978 -20.458463669 0.60905510187 -2.3634450436 -9.7458362579 -1.1751358215e-06
          0.74606788158 -20.171503067 -5.0649532568e-07 -2.236410141 -3.7912144661 0.0084665734321
          -1.480912447 -17.769815445 -1.3983709812 -0.13245505095 -5.7172522545 -0.19862882793
          8.5864105225 -24.335056305 -0.6057317853 -2.2934803963 -15.108039856 -1.430231452
          16.143310547 -25.030660629 7.3529145084e-07 0 0 0
          -1.4913516045 -17.632587433 -0.6894056797 12.325949669 -24.683135986 3.9502026539e-07
          0.1693700552 -3.20287323 1.2895880275e-07 8.5903520584 -24.371675491 -0.30101466179
          -0.1677839905 -5.9266486168 -0.070241734385 -2.3408281803 -15.041378975 -0.73566758633
          -2.0442917347 -14.343277931 1.2384334803 -1.4726992846 -17.626361847 -1.0706380635e-06
          -2.1860723495 -13.228693962 -1.2917255163 -2.3004662991 -9.7872314453 0.62646842003
          -1.3589276075 -20.536148071 -0.98932743073 8.5922269821 -24.38202095 6.1655661909e-08
          4.0619735718 -20.246562958 0.54435122013 0.74890643358 -20.162267685 0.287342906
          -2.3701395988 -14.995754242 -1.4817627516e-06 -0.23106041551 -6.0064930916 -3.2945313144e-11
          -2.2866923809 -7.1386823654 1.1130065918 16.140398026 -25.014915466 0.36894029379
          4.8815593719 -24.120477676 -0.5655823946 -2.1296598911 -13.440022469 -0.6730363965
          -0.98147445917 -8.1229419708 -0.34584343433 -1.4047884941 -20.375953674 -0.46024164557
          -2.0019979477 -16.761716843 0.80694001913 -3.1931436062 -11.854986191 1.3779740334
          0 0 0 -1.0053018332 -8.4340105057 -0.22465214133
          12.321274757 -24.668922424 0.33433014154 0.17006006837 -3.1444349289 0.02943123132
          4.8765697479 -24.132286072 -0.28236919641 -2.1145274639 -13.511561394 -1.7708813402e-06
          -1.4024375677 -20.389904022 -8.0430663729e-07 -1.4913517237 -17.632587433 0.68940365314
          4.8772521019 -24.139057159 -2.6536261544e-07 -1.0057567358 -8.359128952 -6.2743077933e-07
          8.5903511047 -24.371673584 0.301014781 -0.16778407991 -5.9266486168 0.07024165988
          -2.3408293724 -15.041378975 0.73566496372 -2.2086277008 -9.7498455048 1.3263107538
          0.78188866377 -20.199245453 0.58090049028 1.4623579979 -24.070978165 -0.6396318078
          16.119953156 -24.965885162 0.73959726095 0 0 0
          -1.2499274015 -10.64525795 -0.5092587471 0.15396873653 -3.2407639027 0.32696145773
          12.30436039 -24.621191025 0.67219048738 -2.1296579838 -13.440022469 0.67303323746
          -1.4047881365 -20.375953674 0.46024012566 1.4478667974 -24.014535904 -0.31396448612
          -1.4436888695 -18.500923157 -1.4264234304 -1.2820191383 -11.090126991 -0.29839158058
          -1.0053019524 -8.4340105057 0.22465094924 4.8765697479 -24.132284164 0.28236865997
          -1.4053359032 -18.561420441 -0.75089454651 -0.75455474854 -21.551044464 -1.4156399965
          -2.0500030518 -15.743995667 -1.2353459597 17.317895889 -28.906415939 -0.70311099291
          0 0 0 13.400109291 -28.575246811 -0.65127927065
          -1.4809126854 -17.769815445 1.3983694315 -0.13245536387 -5.7172527313 0.1986284554
          8.5864105225 -24.335054398 0.6057318449 -1.9917854071 -15.864863396 -0.66321414709
          -0.64300394058 -21.542613983 -0.70608711243 -2.2934823036 -15.108039856 1.4302299023
          17.333564758 -28.943853378 -0.35075053573 0 0 0
          -1.2662376165 -11.109333992 -9.9007513654e-07 1.4472411871 -24.019227982 -5.862698913e-07
          0.25157368183 -3.7997221947 -0.33399540186 13.413642883 -28.611436844 -0.32396954298
          0.35653406382 -3.7626852989 -0.14312694967 -1.3954690695 -18.577739716 -1.2106382883e-06
          9.5553865433 -28.292751312 -0.60016047955 -1.9510837793 -15.855360985 -1.2160882079e-06
          -0.57271552086 -21.594396591 -9.6869200661e-07 17.336418152 -28.955755234 7.41566339e-07
          0 0 0 0.46743929386 -6.0399026871 0.20561084151
          9.5613222122 -28.318565369 -0.29847350717 13.417646408 -28.621873856 3.7000688735e-07
          -2.1860690117 -13.228693008 1.291723609 -1.3589271307 -20.536148071 0.98932617903
          0.37421780825 -3.7627625465 4.3137072225e-07 0.6629665494 -6.2492413521 0.17098848522
          4.8815588951 -24.120477676 0.56558185816 -0.9814748764 -8.1229419708 0.34584257007
          -1.2952560186 -13.928247452 -0.59488630295 -0.48094466329 -24.474370956 -1.0746077299
          -1.2820188999 -11.090126038 0.29838976264 1.447866559 -24.014535904 0.31396329403
          -1.3649195433 -14.384773254 -0.33746603131 -0.48959490657 -24.314176559 -0.49758729339
          -1.4053360224 -18.561420441 0.75089222193 9.5637845993 -28.325489044 5.6077458233e-09
          0.67420506477 -6.3117194176 3.6752601318e-07 5.7281079292 -28.069129944 -0.57391387224
          -1.9917830229 -15.864865303 0.66321188211 -0.64300394058 -21.542613983 0.70608520508
          17.333564758 -28.943851471 0.35075202584 0 0 0
          0.93764412403 -7.9193601608 0.81435978413 5.7300882339 -28.072696686 -0.28678187728
          13.413642883 -28.611436844 0.32397028804 0.91322177649 -8.1279993057 0.41912943125
          -1.3888130188 -14.479361534 -8.8845132495e-07 -0.50125235319 -24.308820724 -8.5048856135e-07
          0.35653394461 -3.7626855373 0.14312770963 9.5613212585 -28.318565369 0.29847350717
          5.732073307 -28.076641083 -3.498711294e-07 0.86230504513 -8.02572155 2.004886035e-08
          1.4623576403 -24.070976257 0.63963061571 -0.61128783226 -22.231599808 -1.2927957773
          0.66296607256 -6.2492408752 -0.17098778486 -1.2499269247 -10.645256996 0.50925731659
          -1.43445158 -19.103683472 -1.1950255632 -0.4927071929 -22.389535904 -0.65098869801
          -1.4436893463 -18.500923157 1.4264216423 -1.2862502337 -19.377885818 -0.60302460194
          -1.3649191856 -14.384773254 0.33746430278 -0.48959457874 -24.314176559 0.49758562446
          -0.75455492735 -21.551044464 1.4156382084 -2.0499989986 -15.743999481 1.2353441715
          0.97937637568 -10.60092926 0.70056420565 2.2139105797 -27.98591423 -0.65323162079
          17.317893982 -28.906415939 0.70311242342 0 0 0
          13.400109291 -28.575244904 0.6512799859 0.84629398584 -11.102931976 0.38561338186
          -0.4596516192 -22.443532944 -9.2190890655e-07 -1.2784729004 -16.551088333 -0.74729466438
          -0.11939191073 -25.201646805 -1.2603178024 2.2161905766 -27.929130554 -0.32215347886
          0.25157341361 -3.7997229099 0.33399569988 -1.2075226307 -19.483753204 -7.6691048889e-07
          5.7300882339 -28.072696686 0.28678116202 0.91322165728 -8.1279983521 -0.41912937164
          0.029591761529 -25.198839188 -0.63962268829 -1.3151923418 -16.883268356 -0.39375898242
          9.5553865433 -28.292751312 0.60016047955 0.79895180464 -11.141388893 -2.4538968546e-07
          2.2173805237 -27.930860519 -6.9547513704e-07 0.46743816137 -6.0399026871 -0.20561017096
          0.11364857107 -25.205327988 -9.8536679616e-07 18.466079712 -32.913658142 -0.67862713337
          0 0 0 -1.3509702682 -16.91736412 -4.1576268472e-07
          18.477380753 -32.944778442 -0.33854228258 0 0 0
          -0.49270743132 -22.389535904 0.65098679066 14.466303825 -32.591533661 -0.63533121347
          -1.295255661 -13.928248405 0.59488469362 -0.48094430566 -24.474370956 1.0746061802
          2.0684971809 -3.5340659618 -0.67374676466 -1.2862491608 -19.377885818 0.60302293301
          14.476714134 -32.621513367 -0.31614667177 2.232414484 -3.5166535378 -0.24892470241
          5.7281074524 -28.069128036 0.57391315699 18.480184555 -32.954589844 7.2031537002e-07
          0.84629392624 -11.102931023 -0.3856138587 10.518435478 -32.310455322 -0.592636168
          3.3708350658 -5.2617287636 0.52803122997 2.2161903381 -27.929130554 0.32215207815
          0 0 0 0.42124176025 -28.22949791 -1.0090992451
          0.84817755222 -14.104060173 0.39642903209 0.9376437068 -7.9193601608 -0.81435972452
          3.7332661152 -5.1574854851 0.16174323857 10.525824547 -32.331314087 -0.29494810104
          14.480068207 -32.630012512 3.1859039495e-07 0.029591770843 -25.198839188 0.63962066174
          0.76456493139 -14.635931969 0.21487662196 0.43932926655 -28.108556747 -0.48856556416
          -1.3151922226 -16.883268356 0.39375796914 2.1704251766 -3.5793874264 6.6517503683e-07
          -0.6644037962 -22.765314102 -0.92671197653 10.528698921 -32.33681488 -7.6410138661e-08
          -0.6112883091 -22.231599808 1.2927936316 3.7903680801 -5.2368774414 8.8196003389e-07
          0.78563266993 -14.729280472 -2.6274086906e-08 -0.53475314379 -23.004779816 -0.46698269248
          0.42706757784 -28.108966827 -9.2401495522e-07 -1.4344496727 -19.103685379 1.1950234175
          18.477380753 -32.944774628 0.33854371309 6.5950284004 -32.07649231 -0.57179743052
          -1.2271977663 -19.709241867 -0.68178451061 0 0 0
          3.3694360256 -6.6887731552 1.1046676636 0.27596274018 -25.773759842 -1.0488432646
          3.755510807 -6.4707045555 0.48547911644 6.6016540527 -32.078742981 -0.28593203425
          14.476713181 -32.621513367 0.31614729762 -1.1815372705 -20.073745728 -0.35586217046
          0.37371388078 -25.914121628 -0.53620570898 2.2324137688 -3.5166532993 0.2489259541
          0.97937607765 -10.60092926 -0.70056444407 2.2139098644 -27.98591423 0.65323013067
          -0.51149064302 -23.065280914 -8.6030348712e-07 -1.2784729004 -16.55109024 0.74729287624
          -0.11939214915 -25.201644897 1.2603156567 6.604493618 -32.082130432 -4.6188085889e-07
          10.525824547 -32.331314087 0.29494792223 -1.1872119904 -20.170389175 -4.7914966217e-07
          3.7332653999 -5.1574850082 -0.16174156964 3.9224658012 -6.3978943825 7.3666188882e-07
          0.76456433535 -14.635931969 -0.21487678587 0.43932947516 -28.10855484 0.48856365681
          0.38173362613 -25.92127037 -1.0496028153e-06 0.62848687172 -28.584806442 -1.1558326483
          0.68742913008 -16.951358795 0.15910378098 0.77222162485 -28.626523972 -0.57650780678
          0.5824405551 -17.412996292 0.09678516537 18.466079712 -32.913654327 0.67862856388
          0 0 0 -0.53475314379 -23.004779816 0.46698084474
          2.9715592861 -9.6033344269 1.6998729706 3.0179815292 -31.957979202 -0.64680457115
          3.1034834385 -9.4754276276 0.79687654972 14.466302872 -32.591529846 0.63533180952
          2.0684964657 -3.5340659618 0.67374771833 3.0306317806 -31.908941269 -0.31860303879
          6.6016535759 -32.078742981 0.28593111038 -1.1815373898 -20.073747635 0.35586097836
          3.7555098534 -6.4707040787 -0.48547783494 0.37371319532 -25.91411972 0.53620356321
          0.86271440983 -28.651708603 -1.1775963458e-06 0.55431300402 -17.474485397 -5.170310402e-08
          10.518435478 -32.310455322 0.59263592958 3.3708341122 -5.2617282867 -0.52802985907
          0.42124187946 -28.229496002 1.0090972185 3.2195777893 -9.3549203873 4.6421683919e-07
          0.84817630053 -14.104061127 -0.39642947912 3.0348854065 -31.911705017 -8.2428539372e-07
          19.583328247 -36.975692749 -0.66492927074 0 0 0
          -0.66440391541 -22.765314102 0.92670971155 0.77222168446 -28.626523972 0.57650542259
          0 0 0 15.510667801 -36.659194946 -0.62373524904
          -1.1052197218 -23.106941223 -0.52898073196 0.58243972063 -17.412996292 -0.096785455942
          3.6152105331 -2.5152263641 -0.8208141923 -0.14729687572 -26.06149292 -0.6669652462
          19.590730667 -37.005226135 -0.33164295554 6.5950279236 -32.076488495 0.57179647684
          15.518264771 -36.687610626 -0.31047695875 3.7799677849 -2.6378793716 -0.28936490417
          -1.2271981239 -19.709243774 0.68178278208 -1.0094583035 -23.403711319 -0.28945592046
          3.3694341183 -6.6887726784 -1.1046668291 1.3334834576 -32.150829315 -0.94847548008
          3.1034817696 -9.4754285812 -0.79687571526 0.27596127987 -25.773757935 1.0488409996
          2.6118786335 -13.502968788 1.3568774462 3.0306315422 -31.908941269 0.31860136986
          -0.043116223067 -26.28371048 -0.36005976796 2.3779287338 -13.826916695 0.73577558994
          1.3637814522 -32.054546356 -0.4602291882 11.472877502 -36.380008698 -0.5834493041
          19.593408585 -37.014465332 6.7149898086e-07 4.7793631554 -3.8918862343 -0.050013896078
          0 0 0 11.481220245 -36.400341034 -0.29053929448
          5.0698189735 -3.843113184 -0.041186966002 15.520945549 -36.69568634 2.3985177222e-07
          0.93411463499 -28.973955154 -0.86529541016 -0.98322445154 -23.495918274 -8.8369858986e-07
          -0.022060550749 -26.345466614 -1.2054804301e-06 0.58180224895 -20.103067398 0.011749166064
          3.7034871578 -2.7106657028 6.0039087657e-07 1.0420329571 -29.157718658 -0.44637796283
          1.3542246819 -32.050872803 -1.1344797031e-06 0.47683545947 -20.516643524 0.0046332119964
          2.2965633869 -13.888263702 2.6476948278e-07 0.62848669291 -28.584804535 1.1558301449
          11.484173775 -36.405971527 -1.8649750189e-07 0.68742763996 -16.951358795 -0.15910451114
          5.1705579758 -3.8414292336 7.3148675028e-07 7.4695391655 -36.140792847 -0.56312519312
          19.590730667 -37.005222321 0.33164429665 1.0718692541 -29.199419022 -1.3931546619e-06
          5.0269851685 -5.6272778511 0.26438808441 2.9715569019 -9.6033353806 -1.6998723745
          0.42307442427 -20.585922241 -3.8192322904e-07 3.017980814 -31.957977295 0.64680284262
          0 0 0 7.4789352417 -36.145568848 -0.28159216046
          5.2897334099 -5.5595674515 0.15501390398 15.518263817 -36.687610626 0.31047740579
          -1.0094586611 -23.403711319 0.28945407271 -0.043116588145 -26.283708572 0.36005729437
          3.779967308 -2.6378791332 0.28936609626 1.3637810946 -32.054542542 0.46022689342
          2.3779275417 -13.826917648 -0.7357750535 11.481220245 -36.400341034 0.29053890705
          7.4821600914 -36.149780273 -6.0223754872e-07 1.7238247395 -32.430965424 -1.0522279739
          2.1997354031 -16.67650032 0.99616253376 5.3581643105 -5.5554628372 6.5224395485e-07
          5.0698184967 -3.8431129456 0.04118841514 1.9847024679 -17.019598007 0.54944485426
          1.0420321226 -29.157716751 0.44637519121 1.8590683937 -32.494190216 -0.51106476784
          0.4768345952 -20.516645432 -0.004634053912 3.8633341789 -35.988368988 -0.62830108404
          19.583328247 -36.975692749 0.66493058205 0 0 0
          4.8268146515 -7.8943099976 0.80217248201 3.880423069 -35.951961517 -0.31122633815
          15.510666847 -36.659194946 0.62373572588 5.1105222702 -7.7381529808 0.38594099879