<?xml version="1.0"?>
<VTKFile type="UnstructuredGrid" version="0.1" byte_order="LittleEndian" header_type="UInt32" compressor="vtkZLibDataCompressor">
  <UnstructuredGrid>
    <Piece NumberOfPoints="6405" NumberOfCells="4800">
      <PointData>
        <DataArray type="Float32" Name="DISPLACEMENT" NumberOfComponents="3" ComponentName0="X-DISPLACEMENT" ComponentName1="Y-DISPLACEMENT" ComponentName2="Z-DISPLACEMENT" format="ascii" RangeMin="0" RangeMax="257.15016073">
          0 0 0 0 0 0
          2.1521492004 -1.2522033453 -1.0030519962 0 0 0
          1.378873229 -0.70347255468 -0.7585029006 0 0 0
          1.9647045135 -1.4004099369 -0.39954859018 1.1991927624 -0.82848137617 -0.30892011523
          0 0 0 3.9024279118 -2.3509700298 -1.0413297415
          0 0 0 3.845900774 -2.5298881531 -0.53506374359
          2.774674654 -1.9075411558 -0.84218716621 0 0 0
          0 0 0 1.9733774662 -1.4494566917 1.8166808502e-07
          0.95552539825 -0.44256675243 -0.55168813467 1.1943429708 -0.85291260481 7.6049140318e-08
          2.7147972584 -2.0526683331 -0.42969232798 0.82298064232 -0.55578660965 -0.22389401495
          3.8040754795 -2.5798888206 4.2914842879e-07 1.9248701334 -1.5449715853 -0.63279467821
          0 0 0 2.6785099506 -2.0995385647 2.2946416323e-07
          1.8637948036 -1.6815661192 -0.32487341762 0 0 0
          5.5074005127 -3.8366141319 -0.97889411449 0 0 0
          0.81878942251 -0.57482874393 -5.0093984072e-08 0 0 0
          0 0 0 1.9647045135 -1.4004098177 0.39954894781
          4.0934934616 -3.4067151546 -0.80723506212 5.5242462158 -3.9707047939 -0.49747133255
          0.55382072926 -0.2690474987 -0.3449510932 1.1991927624 -0.82848119736 0.30892026424
          4.1064043045 -3.533362627 -0.41120639443 0.44341889024 -0.38332548738 -0.14911819994
          1.8329515457 -1.7218726873 1.585044429e-09 3.845900774 -2.5298876762 0.53506463766
          0 0 0 0 0 0
          1.1356825829 -1.3143945932 -0.42813572288 2.934114933 -3.0569338799 -0.63792514801
          5.5095796585 -4.0177092552 7.5088104268e-07 2.7147974968 -2.0526678562 0.42969280481
          2.9214937687 -3.1806311607 -0.32479655743 0.82298076153 -0.55578637123 0.22389394045
          4.096496582 -3.5748791695 4.5534019932e-07 1.0806032419 -1.4490600824 -0.22221402824
          0.4259956181 -0.39710637927 -2.2574714365e-07 0 0 0
          6.9899153709 -5.579600811 -0.86755782366 0 0 0
          5.3509893417 -5.1870412827 -0.74393641949 1.863795042 -1.6815656424 0.32487344742
          7.0311594009 -5.674053669 -0.43815630674 2.1521494389 -1.2522029877 1.0030523539
          0 0 0 0 0 0
          1.0571478605 -1.4882609844 -2.6716239176e-07 2.9082629681 -3.2191457748 1.3787185082e-07
          0.14420711994 -0.25684535503 -0.14766339958 5.3847799301 -5.2805480957 -0.37541252375
          1.3788735867 -0.70347213745 0.75850313902 1.8335928917 -2.7883293629 -0.45933246613
          0 0 0 5.5242466927 -3.9707043171 0.49747285247
          0.10778122395 -0.39041528106 -0.079673707485 1.8118089437 -2.9172422886 -0.23184297979
          4.1064047813 -3.5333619118 0.41120731831 0.44341918826 -0.38332521915 0.14911779761
          3.9539616108 -4.8484249115 -0.61914145947 0.25809064507 -1.1932563782 -0.19409124553
          7.02973032 -5.7062706947 1.1367135357e-06 3.9024283886 -2.3509693146 1.0413306952
          0 0 0 0 0 0
          3.9574754238 -4.9425940514 -0.31182453036 2.7746753693 -1.9075403214 0.84218770266
          5.3887844086 -5.3121709824 7.5181350212e-07 0.22891929746 -1.3379000425 -0.11292792112
          0.95552557707 -0.44256624579 0.55168813467 0.11240318418 -0.42707228661 -5.2106213388e-07
          1.8056817055 -2.9547991753 -2.1120816029e-07 2.9214942455 -3.1806304455 0.32479682565
          1.0806037188 -1.4490594864 0.2222135067 3.9553864002 -4.9723348618 3.4614723177e-07
          1.9248706102 -1.5449706316 0.63279473782 0.22980023921 -1.3780676126 -5.6786097957e-07
          2.6124098301 -4.5751614571 -0.48196449876 7.0311598778 -5.6740531921 0.43815860152
          5.5074014664 -3.8366129398 0.97889572382 0 0 0
          8.3180150986 -7.5101046562 -0.76305830479 0 0 0
          0 0 0 0.55970424414 -2.6175069809 -0.25725534558
          2.5811092854 -4.6723151207 -0.24178278446 8.35978508 -7.5677671432 -0.38380604982
          6.5239872932 -7.1594409943 -0.6879606843 5.384780407 -5.2805476189 0.37541404366
          -0.28902214766 -0.33641287684 0.072303414345 0 0 0
          4.0934944153 -3.4067139626 0.8072360158 0.55382108688 -0.26904690266 0.34495079517
          0.53482657671 -2.7570230961 -0.13420581818 0.10778167844 -0.39041492343 0.07967274636
          -0.26768898964 -0.44577464461 0.0094947544858 1.8118095398 -2.9172415733 0.23184256256
          6.5580654144 -7.2194843292 -0.34482017159 3.9574761391 -4.9425930977 0.31182524562
          2.5708813667 -4.700261116 -9.110496535e-08 8.3635988235 -7.5885028839 1.5906132376e-06
          -0.41794416308 -1.0518707037 0.069803856313 0.2289198488 -1.3378995657 0.11292678118
          0 0 0 4.9609985352 -6.8592672348 -0.60934150219
          1.1356831789 -1.3143935204 0.42813524604 2.9341156483 -3.0569324493 0.63792550564
          0.53920519352 -2.7992544174 -5.9702432509e-07 6.5663027763 -7.2403974533 1.1236917317e-06
          -0.12590919435 -0.36954137683 -3.3736424143e-07 -0.42985978723 -1.2331413031 -0.035522278398
          4.9652047157 -6.9197263718 -0.3062274456 6.9899163246 -5.5795993805 0.86756020784
          0 0 0 1.023391366 -4.3772764206 -0.33280280232
          5.3509902954 -5.1870398521 0.74393802881 -0.12404415756 -1.4751416445 -9.4959614216e-07
          0.97605192661 -4.4808478355 -0.17114080489 4.9672842026 -6.9406809807 6.296149877e-07
          0.14420755208 -0.25684455037 0.14766255021 2.5811097622 -4.672314167 0.24178262055
          3.4280638695 -6.5978555679 -0.53296166658 8.3597860336 -7.5677666664 0.38380923867
          -0.11431922019 -2.9174056053 -0.2115753442 1.8335937262 -2.7883279324 0.4593320787
          0 0 0 0.53482717276 -2.7570221424 0.13420461118
          3.3943533897 -6.6563043594 -0.26868975163 -0.26768925786 -0.4457745254 -0.0094954902306
          -0.094147332013 -2.937523365 -0.051813032478 6.5580663681 -7.2194833755 0.34482243657
          3.9539625645 -4.848423481 0.61914223433 0.25809136033 -1.1932551861 0.19409011304
          9.4906997681 -9.530708313 -0.67952984571 0 0 0
          0.96638596058 -4.5100512505 -5.6943423488e-07 7.6042737961 -9.2228555679 -0.64332997799
          9.5254764557 -9.5609607697 -0.34197127819 0 0 0
          0.10386846215 -0.73132061958 -0.13947403431 7.6337199211 -9.2556943893 -0.32195878029
          3.3892157078 -6.6760878563 9.9207923654e-08 0.061271276325 -0.71988362074 -0.042902581394
          -0.42985957861 -1.2331405878 0.035520624369 -0.043697554618 -2.9638447762 -1.6406352188e-06
          4.9652056694 -6.9197254181 0.3062287271 5.9047074318 -8.9772987366 -0.61030560732
          0.084604531527 -1.6138942242 -0.24171504378 9.5312042236 -9.5730886459 2.1214398203e-06
          0 0 0 0.069833986461 -1.6379127502 -0.048169508576
          5.9136881828 -9.0089864731 -0.30532085896 7.6422290802 -9.2689237595 1.5799350876e-06
          0.047735005617 -0.72337079048 -4.5790085323e-07 2.6124107838 -4.5751595497 0.48196434975
          1.6157827377 -6.3770751953 -0.44771704078 8.3180160522 -7.5101032257 0.76306158304
          0 0 0 -0.010376016609 -4.1199393272 -0.10328115523
          0.97605252266 -4.4808468819 0.1711396724 0.5597050786 -2.6175055504 0.25725412369
          6.5239887238 -7.1594390869 0.68796300888 -0.28902295232 -0.33641263843 -0.072303920984
          -0.091033935547 -4.5132117271 -0.015453672037 1.5673722029 -6.4353895187 -0.23278704286
          3.394354105 -6.6563029289 0.26868999004 -0.094144158065 -2.9375228882 0.051810011268
          5.9186034203 -9.0219860077 1.0055273378e-06 0.028204753995 -1.7090046406 -9.4316635568e-07
          4.2960476875 -8.8050060272 -0.57955467701 0.18019202352 -3.0066874027 -0.20745366812
          -0.41794475913 -1.0518699884 -0.069805189967 9.5254774094 -9.560959816 0.34197553992
          4.9609999657 -6.8592653275 0.6093428731 0 0 0
          1.5710291862 -6.4532208443 -4.5998683618e-07 -0.11306389421 -4.6475672722 -1.3012910358e-06
          4.2845649719 -8.8254833221 -0.29558950663 7.6337208748 -9.2556934357 0.32196193933
          0.12432160228 -3.0396277905 -0.086410075426 0.061271514744 -0.71988350153 0.042901784182
          1.0233923197 -4.3772745132 0.33280169964 4.2868103981 -8.8400831223 3.88601336e-07
          5.9136891365 -9.0089855194 0.30532288551 0.069834686816 -1.6379121542 0.04816775769
          0.12031376362 -3.0990664959 -1.1332924714e-06 10.543343544 -11.559430122 -0.62351465225
          0 0 0 10.569757462 -11.575640678 -0.31365504861
          3.4280653 -6.5978531837 0.53296196461 8.6008558273 -11.278580666 -0.60644751787
          -0.11431229115 -2.9174046516 0.21157388389 1.5477558374 -6.3378434181 -0.63622522354
          0.14177818596 -0.86139219999 -0.13604803383 -0.09103051573 -4.5132126808 0.01545144897
          1.5673730373 -6.4353880882 0.23278616369 0 0 0
          8.625916481 -11.297426224 -0.30315050483 0.031366415322 -6.1424503326 -0.064259335399
          0.099348142743 -0.8693370223 -0.057537443936 2.4500334263 -8.5538721085 -0.6220240593
          0.56326836348 -4.4526834488 -0.31463187933 9.4907016754 -9.5307064056 0.67953419685
          0 0 0 7.6042757034 -9.2228536606 0.64333319664
          10.576329231 -11.583128929 2.7382434382e-06 0.43893823028 -4.6034913063 -0.095011867583
          2.430464983 -8.5432243347 -0.29527270794 0.10386852175 -0.73132055998 0.13947334886
          6.7877984047 -11.063287735 -0.5930659771 0.22798424959 -1.8795113564 -0.18589092791
          0 0 0 4.2845659256 -8.8254823685 0.29559031129
          0.12432254851 -3.039627552 0.086407981813 8.6335887909 -11.306109428 2.1285536604e-06
          -0.191529423 -6.2015256882 -2.2752293205e-07 6.8085312843 -11.080767632 -0.29760071635
          0.18642677367 -1.9019418955 -0.093874827027 0.094524465501 -0.87264311314 -3.6365582901e-07
          5.9047088623 -8.9772958755 0.61030769348 0.084605492651 -1.6138932705 0.24171380699
          2.4396696091 -8.5569877625 -2.4631208362e-07 0.39305266738 -4.6931505203 -9.2372249583e-07
          1.615784049 -6.3770728111 0.44771626592 6.8143515587 -11.091648102 1.4836049331e-06
          0.17437550426 -1.9064946175 -6.8261709885e-07 -0.010362731293 -4.1199412346 0.10328239202
          10.569758415 -11.575639725 0.31366056204 5.0698919296 -10.943334579 -0.60189038515
          0 0 0 0.35275796056 -3.1281991005 -0.22336560488
          5.0922055244 -10.962305069 -0.30108392239 8.6259174347 -11.29742527 0.30315479636
          0.099348299205 -0.86933684349 0.057536773384 0.031368687749 -6.1424489021 0.064258687198
          0.31546908617 -3.1735680103 -0.10379576683 4.296049118 -8.8050041199 0.57955557108
          2.4265899658 -8.8795976639 -0.80592262745 2.4304661751 -8.5432224274 0.2952722609
          0.18019321561 -3.0066862106 0.20745202899 0.43893989921 -4.6034917831 0.095010221004
          0.82182306051 -6.2026686668 -0.43525111675 2.5117409229 -8.8306159973 -0.31659606099
          5.0967402458 -10.978646278 7.9418680343e-07 6.808532238 -11.080765724 0.29760372639
          0.18642699718 -1.9019416571 0.093873538077 0.96392047405 -6.2163929939 -0.25089073181
          0.29672572017 -3.1988916397 -8.4716356241e-07 11.533769608 -13.565054893 -0.59286218882
          0 0 0 0.1258610934 -0.91609448195 -0.10445135087
          2.3582859039 -8.7605800629 -1.2891129018e-06 3.6469407082 -10.853098869 -0.61409425735
          9.5488843918 -13.284539223 -0.57574146986 10.543345451 -11.559427261 0.62352025509
          0 0 0 0 0 0
          0.92164623737 -6.1843166351 -1.1637525859e-06 0.53046822548 -4.6022777557 -0.2592574358
          11.551517487 -13.579558372 -0.29739809036 3.6830737591 -10.897392273 -0.27936708927
          9.5682516098 -13.303012848 -0.28717693686 8.6008586884 -11.278577805 0.60645186901
          0.09370367229 -0.93860596418 -0.044054806232 1.5477602482 -6.3378424644 0.63622331619
          0.14177818596 -0.86139208078 0.13604746759 0.51745378971 -4.6461100578 -0.13033030927
          5.0922064781 -10.962304115 0.30108556151 0.31546938419 -3.1735677719 0.1037941128
          7.6288170815 -13.054554939 -0.55101317167 2.4500350952 -8.5538692474 0.62202370167
          0.56326961517 -4.4526844025 0.31462967396 0 0 0
          0.22301259637 -1.9766077995 -0.1433673203 11.557723045 -13.58582592 3.4445204165e-06
          0.091570690274 -0.9431270957 -2.2859119042e-07 3.6819694042 -10.904810905 1.1842539394e-08
          7.6536450386 -13.077192307 -0.27682241797 6.787800312 -11.063284874 0.59306901693
          9.5740509033 -13.310338974 2.7719522677e-06 0.2279843241 -1.8795109987 0.18588985503
          0.51884835958 -4.6703658104 -9.0540498832e-07 0.19674885273 -2.0117881298 -0.072386622429
          2.5117428303 -8.8306150436 0.316593647 0.96392244101 -6.2163925171 0.25088867545
          1.399232626 -8.47909832 -0.39779305458 7.6590719223 -13.086344719 2.0661154849e-06
          0.18608778715 -2.022400856 -4.2184908011e-07 1.2982397079 -8.4382953644 -0.24858951569
          5.8492431641 -12.876565933 -0.52444642782 0 0 0
          0.32483434677 -3.2276308537 -0.16709923744 11.55151844 -13.579557419 0.2974050045
          0.093703709543 -0.93860590458 0.044054385275 3.6830749512 -10.897390366 0.27936714888
          5.8855824471 -12.909583092 -0.26363921165 5.069893837 -10.943331718 0.60189205408
          9.5682525635 -13.303011894 0.2871825099 2.9028551579 -10.990462303 -0.28945606947
          0.76559138298 -6.3084640503 -0.31210890412 0.35275813937 -3.1281991005 0.22336417437
          0.30664992332 -3.2715110779 -0.085242934525 0.51745420694 -4.6461100578 0.13032846153
          2.9236109257 -11.116642952 -0.19021135569 0.73398858309 -6.3744091988 -0.15682718158
          1.2569144964 -8.3586912155 -1.4333988929e-06 2.42659235 -8.8795948029 0.80592036247
          7.6536459923 -13.077190399 0.2768265903 0.82182586193 -6.2026691437 0.43524947762
          5.8881917 -12.92087841 1.3173383877e-06 0.19674888253 -2.0117881298 0.072385810316
          0.29999005795 -3.2855393887 -5.6644330471e-07 2.9245505333 -11.113476753 -8.6934306864e-07
          0.74297893047 -6.3850064278 -1.1014966503e-06 0.44996714592 -4.690885067 -0.18926717341
          4.4032087326 -12.715753555 -0.45019102097 11.533771515 -13.565052032 0.59286916256
          0 0 0 1.2982418537 -8.4382944107 0.24858659506
          0.12586098909 -0.91609454155 0.10445098579 0.43436342478 -4.7467799187 -0.096202485263
          3.6469430923 -10.853096008 0.61409437656 9.5488872528 -13.284536362 0.5757471323
          4.4309062958 -12.774847984 -0.23397648335 12.50703907 -15.571523666 -0.58062618971
          0 0 0 0.53046882153 -4.6022777557 0.25925579667
          12.51644516 -15.589761734 -0.28965416551 0.082763142884 -0.9362590909 -0.062067266554
          10.48578167 -15.283474922 -0.55355006456 5.8855838776 -12.909581184 0.26364189386
          0 0 0 0.30664998293 -3.2715110779 0.08524183929
          10.495970726 -15.305848122 -0.27679142356 0.064067482948 -0.9641354084 -0.026092089713
          2.9236123562 -11.116641045 0.19020964205 0.73398941755 -6.3744091988 0.15682503581
          7.6288194656 -13.054552078 0.5510174036 0.43018108606 -4.7630343437 -6.8600610348e-07
          4.4312725067 -12.785456657 5.2251328952e-07 0.22301247716 -1.9766079187 0.14336661994
          1.9974910021 -11.230143547 -0.25577327609 0.15258578956 -2.017957449 -0.082970894873
          8.4700565338 -15.004555702 -0.51804500818 0.99580657482 -8.3928480148 -0.28516328335
          12.520449638 -15.595973015 4.240688213e-06 0 0 0
          1.9384973049 -11.257270813 -0.15907377005 10.499376297 -15.313467026 3.5085770378e-06
          0.062566399574 -0.97065007687 -8.5376768766e-08 8.4839458466 -15.035964012 -0.25665006042
          0.13822281361 -2.0589733124 -0.042716242373 1.0332906246 -8.459353447 -0.14657083154
          1.3992357254 -8.4790973663 0.39779084921 1.9985450506 -11.287763596 -2.4302098609e-06
          0.58625304699 -6.4017887115 -0.19679184258 0.43436357379 -4.7467799187 0.09620115906
          2.9542975426 -12.519979477 -0.33914470673 8.4877319336 -15.043581963 2.7469664019e-06
          5.8492455482 -12.876563072 0.52444916964 4.4309077263 -12.774846077 0.23397755623
          1.0254603624 -8.4584999084 -1.4497715028e-06 0.13319462538 -2.0709018707 -1.5935080455e-07
          0.32483425736 -3.2276313305 0.16709825397 12.516446114 -15.58976078 0.28966268897
          6.5462846756 -14.836196899 -0.44631150365 0.59012573957 -6.4646296501 -0.10071758181
          0.2265919745 -3.2761263847 -0.096932783723 2.9569823742 -12.589971542 -0.18875065446
          2.9028580189 -10.990459442 0.28945437074 0.76559233665 -6.3084640503 0.31210693717
          0 0 0 0.2158857733 -3.3270316124 -0.049970515072
          10.495972633 -15.305846214 0.27679845691 0.064067475498 -0.9641354084 0.02609193325
          6.5668926239 -14.870972633 -0.22844085097 0.58814877272 -6.4817118645 -8.407681662e-07
          2.9773392677 -12.607224464 -2.6034066991e-07 1.938500762 -11.257269859 0.15906971693
          6.5701336861 -14.881064415 1.9577196326e-06 0.21177625656 -3.3421962261 -2.2166055658e-07
          8.4839477539 -15.035963058 0.25665560365 0.1382227838 -2.0589733124 0.042715933174
          1.0332918167 -8.459353447 0.14656810462 0.44996717572 -4.6908855438 0.18926593661
          4.4032111168 -12.715750694 0.45019215345 4.9528722763 -14.811552048 -0.42709878087
          12.507041931 -15.571520805 0.58063477278 0 0 0
          0.31017315388 -4.7444987297 -0.10652890801 0.082763068378 -0.93625926971 0.062067124993
          10.485784531 -15.283472061 0.55355721712 0.59012597799 -6.4646296501 0.10071593523
          2.9569838047 -12.589969635 0.18875013292 4.9698638916 -14.838281631 -0.21410511434
          1.4399445057 -10.688547134 -0.18137058616 0.3038969636 -4.8014540672 -0.054701309651
          0.2158857286 -3.3270316124 0.049970082939 6.5668940544 -14.870970726 0.22844478488
          1.4489825964 -10.72292614 -0.11469881982 2.1794166565 -12.561507225 -0.45181456208
          0.78087544441 -8.3634691238 -0.17667064071 13.478345871 -17.619604111 -0.57525658607
          0 0 0 11.413884163 -17.332422256 -0.54836201668
          1.997497201 -11.23014164 0.25577017665 0.15258567035 -2.0179579258 0.082970619202
          8.4700593948 -15.004551888 0.51805061102 0.78949379921 -8.4203062057 -0.090422160923
          2.2289958 -12.605957031 -0.18074636161 0.99580818415 -8.3928470612 0.28516089916
          13.481093407 -17.638223648 -0.28686073422 0 0 0
          0.3013728559 -4.8191051483 -2.9195911111e-07 4.9760222435 -14.855904579 1.1315966049e-06
          0.025131154805 -0.93956249952 -0.016783406958 11.415401459 -17.353876114 -0.27378293872
          0.020935976878 -0.96869105101 -0.0068928748369 1.4328327179 -10.733906746 -1.5759019334e-06
          9.3650836945 -17.049900055 -0.51331943274 0.78938025236 -8.4376983643 -1.04438368e-06
          2.2993381023 -12.682358742 -2.0895502075e-06 13.482135773 -17.644369125 5.1263491514e-06
          0 0 0 0.053081121296 -2.0226149559 -0.020086985081
          9.3598012924 -17.078641891 -0.25519055128 11.416679382 -17.360799789 4.3350773922e-06
          0.5862532258 -6.4017891884 0.19679032266 2.9543001652 -12.519976616 0.33914420009
          0.020819308236 -0.97572690248 5.2208505963e-08 0.05048679933 -2.0660331249 -0.010346885771
          6.5462875366 -14.836194038 0.44631552696 0.22659181058 -3.2761268616 0.096932388842
          0.41087001562 -6.4395046234 -0.11120544374 3.6840150356 -14.860874176 -0.46678352356
          0.30389690399 -4.8014540672 0.054700728506 4.9698653221 -14.838280678 0.21410740912
          0.40831506252 -6.4972605705 -0.056496046484 3.702729702 -14.887610435 -0.20279256999
          1.4489839077 -10.72292614 0.11469576508 9.3613462448 -17.084938049 3.515604476e-06
          0.049325782806 -2.0791292191 1.0660532013e-07 7.1004152298 -16.782077789 -0.439748317
          0.78949415684 -8.4203052521 0.090420126915 2.2290015221 -12.605957985 0.18074345589
          13.481095314 -17.638221741 0.28687101603 0 0 0
          0.091793254018 -3.2780203819 -0.02194734104 7.1013379097 -16.816711426 -0.22505436838
          11.415402412 -17.353876114 0.273791641 0.089377813041 -3.3318960667 -0.011429348961
          0.40727967024 -6.5160331726 -4.0328990281e-07 3.7101392746 -14.896670341 2.2817032175e-07
          0.020935960114 -0.96869111061 0.0068929735571 9.3598031998 -17.078639984 0.25519761443
          7.1084156036 -16.823451996 2.6863228868e-06 0.088356159627 -3.3485169411 1.5067915626e-07
          4.9528756142 -14.811548233 0.42710116506 1.9589252472 -12.607843399 -0.2586774528
          0.050486750901 -2.0660331249 0.010347091593 0.31017297506 -4.7444992065 0.10652835667
          1.0473015308 -10.445187569 -0.14569602907 1.9263812304 -12.697228432 -0.12485528737
          1.4399461746 -10.688546181 0.18136809766 1.0558210611 -10.497141838 -0.075641572475
          0.40831503272 -6.4972605705 0.056495249271 3.7027313709 -14.887609482 0.20279307663
          2.1794245243 -12.561508179 0.45181554556 0.78087574244 -8.3634691238 0.17666880786
          0.14400024712 -4.7431879044 -0.026323223487 5.3804755211 -16.725456238 -0.38380521536
          13.478348732 -17.619600296 0.57526695728 0 0 0
          11.413887978 -17.332418442 0.54837077856 0.13931889832 -4.8021879196 -0.01368924696
          1.9311823845 -12.711286545 -1.2579619124e-06 0.53594136238 -8.3377532959 -0.10684157163
          2.9426836967 -15.043663979 -0.28941601515 5.4048485756 -16.74256897 -0.19604630768
          0.025131171569 -0.93956273794 0.01678350009 1.0592315197 -10.517458916 -1.2096028286e-06
          7.1013393402 -16.816709518 0.2250597626 0.089377716184 -3.3318963051 0.011429636739
          2.9522047043 -15.105984688 -0.17156088352 0.53987681866 -8.3893756866 -0.054717555642
          9.3650865555 -17.04989624 0.51332658529 0.13802273571 -4.8210244179 1.6402763947e-07
          5.4077730179 -16.750518799 1.8384494069e-06 0.053081091493 -2.0226151943 0.020087167621
          2.9494454861 -15.09905529 -7.6946338368e-07 14.436243057 -19.715373993 -0.57188099623
          0 0 0 0.54052704573 -8.4081230164 -5.6639117929e-07
          14.435595512 -19.730314255 -0.28599703312 0 0 0
          1.9263825417 -12.697228432 0.12485264987 12.338572502 -19.436937332 -0.55344492197
          0.4108697772 -6.4395051003 0.11120467633 3.6840181351 -14.860871315 0.46678414941
          -0.035954833031 -0.93511986732 0.02772205323 1.0558214188 -10.497140884 0.075639210641
          12.33602047 -19.452610016 -0.27566170692 -0.025518078357 -0.96217519045 0.011687562801
          7.1004185677 -16.782073975 0.43975377083 14.434905052 -19.73572731 6.0997122091e-06
          0.13931873441 -4.8021883965 0.013689552434 10.223862648 -19.184602737 -0.53248637915
          -0.058442540467 -1.9990713596 0.043539747596 5.4048500061 -16.742567062 0.19605003297
          0 0 0 4.2636241913 -16.633703232 -0.36819189787
          0.20508491993 -6.4313850403 -0.0352595523 0.091793119907 -3.2780208588 0.021947581321
          -0.047089666128 -2.0419001579 0.02236783877 10.214365959 -19.196983337 -0.26629203558
          12.33562851 -19.457929611 5.2472182688e-06 2.9522068501 -15.10598278 0.17155945301
          0.19935894012 -6.4895272255 -0.018591428176 4.2771334648 -16.654983521 -0.18886612356
          0.53987681866 -8.3893756866 0.054716438055 -0.02428422682 -0.968983531 1.8328577767e-07
          1.2838844061 -12.584180832 -0.14052966237 10.213898659 -19.203836441 4.3691156861e-06
          1.9589270353 -12.607843399 0.25867411494 -0.043670598418 -2.0547549725 3.6085864963e-07
          0.19845220447 -6.5093197823 1.2104237612e-07 1.3004511595 -12.646030426 -0.068108968437
          4.2773661613 -16.661245346 9.6996689081e-07 1.0473018885 -10.445187569 0.1456938386
          14.43559742 -19.730312347 0.28600925207 8.0773906708 -18.919555664 -0.54544979334
          0.68357956409 -10.376280785 -0.098583005369 0 0 0
          -0.05959854275 -3.2316465378 0.056078962982 2.2804005146 -15.324412346 -0.36575123668
          -0.053182840347 -3.2881555557 0.028585027903 8.0639715195 -18.925796509 -0.25938475132
          12.336022377 -19.452608109 0.27567222714 0.69320440292 -10.419805527 -0.050070878118
          2.2467327118 -15.304182053 -0.17377011478 -0.025518100709 -0.96217525005 -0.011687221006
          0.143999964 -4.743188858 0.026323460042 5.3804788589 -16.725452423 0.38380905986
          1.2967897654 -12.661275864 -1.3325300188e-06 0.53594112396 -8.3377532959 0.10684049875
          2.9426877499 -15.043661118 0.28941476345 8.0672206879 -18.932159424 3.4672896163e-06
          10.214367867 -19.19698143 0.26630079746 0.6956294179 -10.438797951 -7.7215815963e-07
          -0.047089722008 -2.0419001579 -0.022367140278 -0.050746817142 -3.3054983616 5.1411922186e-07
          0.19935870171 -6.4895277023 0.018591640517 4.2771353722 -16.654981613 0.18886810541
          2.278254509 -15.335433006 -1.569697929e-06 3.0423355103 -16.500490189 -0.3285407424
          0.27345269918 -8.3158550262 -0.048090893775 3.0410263538 -16.527393341 -0.17327292264
          0.26860803366 -8.3676052094 -0.026207054034 14.436245918 -19.715370178 0.57189327478
          0 0 0 1.3004518747 -12.646029472 0.068106248975
          -0.046229485422 -4.6855483055 0.058062765747 5.9761137962 -18.594655991 -0.33523517847
          -0.047273941338 -4.7502532005 0.028877645731 12.338576317 -19.436933517 0.55345547199
          -0.035954724997 -0.93512010574 -0.027721730992 5.9941782951 -18.582233429 -0.17825710773
          8.0639734268 -18.925794601 0.25939172506 0.69320446253 -10.419805527 0.050069347024
          -0.053182974458 -3.2881557941 -0.028584040701 2.2467343807 -15.304180145 0.17376683652
          3.0527136326 -16.537374496 1.3459055026e-07 0.26885908842 -8.3876361847 -4.8981441125e-09
          10.223866463 -19.18460083 0.53249520063 -0.058442473412 -1.9990717173 -0.043539121747
          4.2636275291 -16.633699417 0.36819395423 -0.046821899712 -4.7709612846 6.2028482262e-07
          0.20508447289 -6.4313855171 0.035259671509 5.9988074303 -18.59044838 2.7342528028e-06
          15.384005547 -21.836603165 -0.57099187374 0 0 0
          1.283885479 -12.584179878 0.14052712917 3.041028738 -16.527391434 0.17327320576
          0 0 0 13.254175186 -21.560562134 -0.55597919226
          0.86176651716 -12.480208397 -0.075589470565 0.26860776544 -8.3676052094 0.026207005605
          -0.088381007314 -0.92746055126 0.064566090703 1.5885490179 -14.791329384 -0.048518683761
          15.382330894 -21.848564148 -0.28573808074 8.0773944855 -18.919551849 0.54545688629
          13.252005577 -21.571985245 -0.27811717987 -0.06222069636 -0.94767278433 0.026919478551
          0.68357944489 -10.376281738 0.098581537604 0.87798005342 -12.521810532 -0.040218122303
          -0.059598632157 -3.2316470146 -0.056078091264 4.741964817 -18.480487823 -0.38056826591
          -0.047274198383 -4.7502532005 -0.028876461089 2.280403614 -15.324408531 0.36574780941
          -0.029626904055 -6.38408041 0.045349497348 5.9941802025 -18.582231522 0.17826253176
          1.6081109047 -14.861153603 -0.066382013261 -0.04011362046 -6.448474884 0.022178893909
          4.7429971695 -18.481666565 -0.19002878666 11.116456985 -21.292783737 -0.54564136267
          15.381427765 -21.852819443 7.1552344707e-06 -0.15429057181 -1.9523966312 0.10405360907
          0 0 0 11.113064766 -21.302036285 -0.27264159918
          -0.12736852467 -1.989595294 0.051837190986 13.251110077 -21.576309204 6.2386284299e-06
          2.5062441826 -16.799406052 -0.45803794265 0.88400423527 -12.541948318 -1.035140599e-06
          1.6054341793 -14.870676041 -1.5480698039e-06 0.35225194693 -10.332615852 -0.057859707624
          -0.058657802641 -0.95403659344 3.0862503309e-07 2.5443663597 -16.788330078 -0.18576493859
          4.7511177063 -18.492357254 1.8589464617e-06 0.35444247723 -10.375582695 -0.032763384283
          -0.041484065354 -6.4691786766 6.5547806116e-07 3.0423398018 -16.500486374 0.32854112983
          11.11178875 -21.305868149 5.2984087233e-06 0.27345210314 -8.3158559799 0.048090744764
          -0.11924152821 -2.0018081665 5.9013524378e-07 8.9846382141 -21.0278759 -0.53653365374
          15.382332802 -21.848562241 0.28575238585 2.5342149734 -16.801868439 -1.0076386161e-06
          -0.21097250283 -3.1402771473 0.14005440474 -0.046229816973 -4.6855487823 -0.058061752468
          0.35884764791 -10.395945549 -2.3844106067e-07 5.9761176109 -18.594652176 0.33524057269
          0 0 0 8.9822206497 -21.033594131 -0.26890411973
          -0.18700826168 -3.1984224319 0.070532470942 13.252007484 -21.571983337 0.27812969685
          0.87798035145 -12.521810532 0.040216110647 1.6081119776 -14.861152649 0.066378951073
          -0.062220726162 -0.94767278433 -0.026918901131 4.7429990768 -18.481664658 0.19003245234
          -0.040114026517 -6.448474884 -0.022177660838 11.113066673 -21.302034378 0.27265223861
          8.978925705 -21.037103653 4.3416757762e-06 3.6882340908 -18.434873581 -0.40065738559
          -0.028475146741 -8.2859163284 0.016004230827 -0.17951403558 -3.2162234783 8.2417045633e-07
          -0.12736859918 -1.989595294 -0.051836047322 -0.038982264698 -8.3486862183 0.007051053457
          2.5443677902 -16.788328171 0.18576291203 3.6908063889 -18.454559326 -0.18708878756
          0.35444223881 -10.375582695 0.032762881368 6.1347551346 -20.082139969 -0.30096581578
          15.384009361 -21.83659935 0.57100623846 0 0 0
          -0.24779377878 -4.5712432861 0.1555544287 6.1362886429 -20.048692703 -0.17691835761