<?xml version="1.0"?>
<VTKFile type="UnstructuredGrid" version="0.1" byte_order="LittleEndian" header_type="UInt32" compressor="vtkZLibDataCompressor">
  <UnstructuredGrid>
    <Piece NumberOfPoints="6405" NumberOfCells="4800">
      <PointData>
        <DataArray type="Float32" Name="DISPLACEMENT" NumberOfComponents="3" ComponentName0="X-DISPLACEMENT" ComponentName1="Y-DISPLACEMENT" ComponentName2="Z-DISPLACEMENT" format="ascii" RangeMin="0" RangeMax="235.33270233">
          0 0 0 0 0 0
          1.8923259974 -1.1447588205 -0.87627512217 0 0 0
          1.2445943356 -0.66416364908 -0.689627707 0 0 0
          1.7246624231 -1.2577296495 -0.34875532985 1.0817724466 -0.75772279501 -0.28142336011
          0 0 0 3.3987925053 -2.071089983 -0.90150666237
          0 0 0 3.3468818665 -2.2027287483 -0.4657959044
          2.5044879913 -1.6840646267 -0.76563763618 0 0 0
          0 0 0 1.7294000387 -1.2970900536 -3.6170536788e-08
          0.92856824398 -0.42573344707 -0.53935146332 1.0770792961 -0.77679187059 3.0726432509e-09
          2.4479115009 -1.7878299952 -0.39135876298 0.79723095894 -0.51412189007 -0.21925348043
          3.3075859547 -2.2397994995 5.4327551346e-09 1.8669359684 -1.3481708765 -0.61718773842
          0 0 0 2.4139072895 -1.8229337931 8.0957725856e-08
          1.8064398766 -1.4477959871 -0.31815066934 0 0 0
          4.7703723907 -3.2479743958 -0.84826630354 0 0 0
          0.79222750664 -0.52994292974 6.8326286851e-08 0 0 0
          0 0 0 1.7246627808 -1.2577296495 0.34875530005
          3.691649437 -2.8768026829 -0.73724478483 4.7817130089 -3.3389072418 -0.43333691359
          0.62520456314 -0.25124403834 -0.36368349195 1.0817726851 -0.75772249699 0.28142338991
          3.7006380558 -2.9621801376 -0.37608861923 0.52527153492 -0.34405916929 -0.15047110617
          1.7770367861 -1.478333354 1.4972665952e-07 3.3468830585 -2.2027289867 0.4657959938
          0 0 0 0 0 0
          1.2980258465 -1.1029422283 -0.46494573355 2.839040041 -2.5703704357 -0.62977474928
          4.7683992386 -3.3728621006 1.4798897041e-07 2.4479122162 -1.7878298759 0.3913589716
          2.8249862194 -2.6529359818 -0.32317087054 0.79723107815 -0.51412111521 0.21925355494
          3.6912567616 -2.9917244911 3.3875824101e-07 1.2347193956 -1.2062367201 -0.24193909764
          0.52111566067 -0.35652944446 1.0357127422e-07 0 0 0
          6.0454545021 -4.5598244667 -0.76398426294 0 0 0
          4.8222932816 -4.2201795578 -0.68551152945 1.8064405918 -1.4477953911 0.31815084815
          6.0774006844 -4.6230654716 -0.38749203086 1.8923267126 -1.1447587013 0.87627530098
          0 0 0 0 0 0
          1.2176150084 -1.2380307913 4.5782520885e-08 2.8129243851 -2.6816504002 3.3260917576e-07
          0.22788070142 -0.1311403811 -0.17211444676 4.8501205444 -4.2829508781 -0.3462689817
          1.2445948124 -0.66416317225 0.68962776661 2.0368349552 -2.3195617199 -0.52407211065
          0 0 0 4.7817144394 -3.3389077187 0.43333727121
          0.13924829662 -0.23433472216 -0.085390537977 2.0196521282 -2.4182853699 -0.27092930675
          3.7006394863 -2.9621806145 0.37608936429 0.52527081966 -0.34405785799 0.15047097206
          3.7833249569 -3.9432134628 -0.61029648781 0.51973897219 -0.9426125288 -0.30581134558
          6.0778164864 -4.6460857391 5.4908781522e-07 3.3987939358 -2.0710902214 0.90150696039
          0 0 0 0 0 0
          3.7978830338 -4.0044960976 -0.30759906769 2.5044894218 -1.6840643883 0.76563799381
          4.8537135124 -4.3058428764 9.0189837465e-07 0.46722888947 -1.046287179 -0.17309901118
          0.9285684824 -0.42573219538 0.53935140371 0.12704972923 -0.24748969078 -6.4165000424e-08
          2.0198431015 -2.459628582 2.0855306104e-07 2.8249871731 -2.6529362202 0.3231716454
          1.234718442 -1.2062343359 0.24193879962 3.7986273766 -4.026242733 1.0164011428e-06
          1.8669370413 -1.3481696844 0.61718779802 0.47002628446 -1.0793141127 1.0967783481e-07
          2.8463468552 -3.7431008816 -0.53740996122 6.0774025917 -4.6230664253 0.38749319315
          4.7703752518 -3.2479753494 0.84826683998 0 0 0
          7.2223706245 -5.9628243446 -0.69610869884 0 0 0
          0 0 0 0.98988705873 -2.1291358471 -0.42539829016
          2.8261408806 -3.8021020889 -0.27529621124 7.2538127899 -6.0086007118 -0.35052865744
          5.8874611855 -5.6454005241 -0.6379724741 4.8501224518 -4.2829518318 0.34627082944
          -0.086501710117 -0.22754752636 -0.13429433107 0 0 0
          3.6916518211 -2.8768033981 0.73724573851 0.62520372868 -0.25124165416 0.36368277669
          1.0289776325 -2.2126405239 -0.23681223392 0.1392467916 -0.23433348536 0.085389576852
          -0.099622830749 -0.2837151587 -0.10182721913 2.0196537971 -2.4182853699 0.27092939615
          5.9174022675 -5.6934900284 -0.31984326243 3.7978847027 -4.0044975281 0.30760127306
          2.8165311813 -3.8245687485 6.1534802853e-07 7.2597603798 -6.0256099701 1.3287681213e-06
          -0.20164316893 -0.8795208931 -0.23800884187 0.4672215879 -1.0462841988 0.17309704423
          0 0 0 4.705186367 -5.3813281059 -0.57830452919
          1.2980257273 -1.1029397249 0.46494498849 2.8390426636 -2.5703706741 0.62977582216
          1.0961560011 -2.251938343 -3.8454950868e-07 5.9253296852 -5.7109532356 1.8274308786e-06
          -0.039995860308 -0.33188602328 1.7747863694e-06 0.049309965223 -1.0002615452 -0.1720828563
          4.7241644859 -5.4303212166 -0.28941428661 6.04545784 -4.5598268509 0.76398557425
          0 0 0 1.6527836323 -3.4879915714 -0.48355489969
          4.8222966194 -4.2201814651 0.68551361561 0.17808586359 -1.0652419329 -2.4294349714e-06
          1.8593773842 -3.6180403233 -0.22829602659 4.7280268669 -5.4470291138 2.1834359814e-06
          0.22787849605 -0.13113738596 0.17211191356 2.8261413574 -3.8021051884 0.27529862523
          3.6018881798 -5.1931452751 -0.51659971476 7.2538146973 -6.0086021423 0.35053133965
          -0.44674885273 -1.8850357533 -0.022463440895 2.0368354321 -2.3195614815 0.52407193184
          0 0 0 1.0289634466 -2.2126348019 0.23681114614
          3.6304700375 -5.226170063 -0.24963617325 -0.099633842707 -0.28371539712 0.1018223986
          0.55682879686 -2.0674138069 -0.23463253677 5.9174041748 -5.6934914589 0.31984698772
          3.7833282948 -3.9432156086 0.61029911041 0.51973545551 -0.94260841608 0.30580720305
          8.3202219009 -7.4233951569 -0.6495437026 0 0 0
          1.991296649 -3.6825244427 -1.6329486243e-06 6.8973255157 -7.1218185425 -0.59951531887
          8.3455314636 -7.462020874 -0.32590538263 0 0 0
          0.18718482554 -0.50512331724 -0.21259123087 6.9217305183 -7.1632027626 -0.29943579435
          3.6445109844 -5.2256507874 2.5607030238e-06 0.14571805298 -0.51589083672 -0.083418175578
          0.049271199852 -1.0002491474 0.17206838727 0.69088554382 -2.0943498611 -8.1589512035e-08
          4.7241663933 -5.4303231239 0.28941881657 5.5899424553 -6.8650860786 -0.5458047986
          0.29162582755 -1.1881378889 -0.29203349352 8.3528938293 -7.4760556221 2.465734724e-06
          0 0 0 0.30033615232 -1.1838690042 -0.13893145323
          5.6128416061 -6.9066953659 -0.2730358243 6.9292411804 -7.1778159142 3.052396778e-06
          0.15656237304 -0.53091520071 -3.655157343e-06 2.846350193 -3.7431037426 0.53741383553
          2.7261965275 -5.0608563423 -0.42393246293 7.2223749161 -5.9628267288 0.69611155987
          0 0 0 -0.40039399266 -3.1321935654 0.059472601861
          1.8593792915 -3.6180489063 0.22829642892 0.98988872766 -2.129137516 0.42539972067
          5.8874650002 -5.6454029083 0.637976408 -0.086518682539 -0.22753830254 0.13427919149
          1.4155068398 -3.5832321644 -0.11422307044 2.6860101223 -5.0461783409 -0.17310327291
          3.6304712296 -5.2261719704 0.24964153767 0.55679267645 -2.0673766136 0.23462741077
          5.6208376884 -6.9204134941 3.620756388e-06 0.33498242497 -1.2061935663 -6.8471190389e-06
          4.4002323151 -6.6456899643 -0.48917964101 0.52449780703 -2.1553750038 -0.34199279547
          -0.20166729391 -0.87949681282 0.23797145486 8.345533371 -7.4620223045 0.32591032982
          4.7051901817 -5.3813309669 0.57830947638 0 0 0
          2.6419916153 -4.9972572327 4.2177939577e-06 1.3679022789 -3.6771361828 4.461579465e-06
          4.4179172516 -6.6941928864 -0.24320754409 6.9217324257 -7.1632041931 0.29944196343
          0.51374280453 -2.115912199 -0.11340605468 0.14571903646 -0.51588970423 0.083410583436
          1.6527847052 -3.4879922867 0.48355928063 4.4243764877 -6.7101607323 4.4575094762e-06
          5.6128435135 -6.9066967964 0.27304312587 0.30034515262 -1.1838564873 0.13891735673
          0.59437507391 -2.1935973167 -6.0733786995e-06 9.365937233 -8.9348831177 -0.62189805508
          0 0 0 9.3843135834 -8.9734430313 -0.31090781093
          3.6018924713 -5.1931490898 0.51660579443 7.8578300476 -8.6459493637 -0.57040792704
          -0.44677224755 -1.8850482702 0.022454693913 2.2724325657 -5.1804933548 -0.21316090226
          0.20221087337 -0.58455556631 -0.16734011471 1.4155973196 -3.583288908 0.11422028393
          2.6860141754 -5.0461792946 0.17311179638 0 0 0
          7.8768529892 -8.6861619949 -0.28465679288 1.751819253 -4.9348011017 -0.15821713209
          0.15687420964 -0.60541236401 -0.0742880404 3.3709685802 -6.4614505768 -0.41800552607
          0.96766638756 -3.2210764885 -0.30719295144 8.3202266693 -7.4233980179 0.649548769
          0 0 0 6.8973298073 -7.1218209267 0.59952163696
          9.3910131454 -8.9867296219 3.8550997488e-06 0.80531078577 -3.3862540722 -0.056124154478
          3.3542685509 -6.5288448334 -0.22351071239 0.18718595803 -0.50512075424 0.21258468926
          6.4395236969 -8.4012880325 -0.51765549183 0.35946136713 -1.3141274452 -0.22941438854
          0 0 0 4.4179196358 -6.6941943169 0.24321645498
          0.51376456022 -2.1158833504 0.11340282857 7.8833646774 -8.6997976303 4.4321659516e-06
          1.5268657207 -4.815926075 1.1889167581e-05 6.4591908455 -8.4423208237 -0.25815474987
          0.33099761605 -1.3433026075 -0.118870534 0.15746036172 -0.60646361113 -3.5324997043e-06
          5.5899467468 -6.8650889397 0.54581224918 0.29163959622 -1.1881327629 0.292029351
          3.3389177322 -6.5501232147 6.0418024077e-06 0.91544425488 -3.524668932 9.754164239e-06
          2.7262015343 -5.0608615875 0.42394134402 6.4651741982 -8.4567403793 5.0493999879e-06
          0.32082891464 -1.3465385437 -5.0773514886e-06 -0.39972582459 -3.131998539 -0.05907888338
          9.3843154907 -8.9734449387 0.31091552973 5.1404976845 -8.2129087448 -0.4681301713
          0 0 0 0.52141553164 -2.2391808033 -0.24704606831
          5.1548304558 -8.2543153763 -0.23512353003 7.8768553734 -8.6861629486 0.28466570377
          0.15687838197 -0.60540944338 0.07428188622 1.7518361807 -4.934803009 0.15823504329
          0.50433218479 -2.2930943966 -0.12926843762 4.4002370834 -6.6456928253 0.48918864131
          2.2359571457 -6.2971534729 -0.39453333616 3.3542723656 -6.528845787 0.22352227569
          0.52458006144 -2.1552922726 0.34201180935 0.80533510447 -3.3862752914 0.056151065975
          1.1247638464 -4.7392725945 -0.29715260863 2.1374249458 -6.3610901833 -0.23992969096
          5.1573786736 -8.2716770172 5.8160790104e-06 6.4591932297 -8.4423217773 0.25816485286
          0.33100616932 -1.3432921171 0.11886303127 1.2820100784 -4.8735599518 -0.12990124524
          0.48956501484 -2.3027122021 -2.5881315651e-06 10.384775162 -10.510079384 -0.60605353117
          0 0 0 0.15777924657 -0.61422711611 -0.12046286464
          2.0830457211 -6.3779697418 7.3044006967e-06 3.937349081 -8.0908880234 -0.43365845084
          8.7801237106 -10.224720955 -0.54941290617 9.3659420013 -8.9348859787 0.62190586329
          0 0 0 0 0 0
          1.341380477 -4.9065551758 1.4543320503e-05 0.68146419525 -3.4272911549 -0.24347892404
          10.397622108 -10.551797867 -0.30230268836 3.9408242702 -8.1355695724 -0.21889977157
          8.7940206528 -10.267707825 -0.27337583899 7.857834816 -8.6459512711 0.57041686773
          0.12252347171 -0.64405763149 -0.051173567772 2.2724359035 -5.1805000305 0.21317715943
          0.20221580565 -0.58455353975 0.16733674705 0.70754337311 -3.4735753536 -0.11789312214
          5.15483284 -8.25431633 0.23513513803 0.5043386817 -2.2930817604 0.12926249206
          7.2378740311 -9.9956483841 -0.48867151141 3.370973587 -6.4614534378 0.41801661253
          0.96763467789 -3.2210452557 0.30716252327 0 0 0
          0.28036728501 -1.3861677647 -0.15954005718 10.402910233 -10.565574646 5.3782700888e-06
          0.12060173601 -0.64984601736 -2.4277389912e-06 3.93866539 -8.1577711105 6.6546799644e-06
          7.2540974617 -10.037501335 -0.2433963418 6.4395284653 -8.4012899399 0.51766568422
          8.798538208 -10.281460762 5.8712016653e-06 0.35947960615 -1.3141093254 0.22941017151
          0.69873970747 -3.5006356239 5.54437338e-06 0.2549918592 -1.4305312634 -0.082844369113
          2.137430191 -6.3610916138 0.23994319141 1.2820472717 -4.8735842705 0.12993487716
          1.7390122414 -6.3820400238 -0.33757820725 7.2580142021 -10.050832748 6.3965353547e-06
          0.24643629789 -1.4420289993 -3.0885871638e-06 1.7216109037 -6.3647170067 -0.14943704009
          5.8086357117 -9.833691597 -0.43523555994 0 0 0
          0.38633328676 -2.3520345688 -0.1798312068 10.397624969 -10.55179882 0.3023134768
          0.1225259006 -0.64405471087 0.051169585437 3.9408268929 -8.1355705261 0.2189129144
          5.8253259659 -9.8713254929 -0.21744847298 5.1405024529 -8.2129106522 0.4681417346
          8.7940235138 -10.267708778 0.27338758111 2.8477828503 -8.0285482407 -0.392729491
          0.94115102291 -4.8094997406 -0.24055826664 0.52142125368 -2.239158392 0.24704456329
          0.37621292472 -2.4006278515 -0.090823635459 0.70754814148 -3.4735710621 0.11789602041
          2.8405666351 -8.0809383392 -0.18465170264 0.93051344156 -4.8608760834 -0.1134936288
          1.6965303421 -6.3569293022 1.2798832358e-05 2.2359631062 -6.2971563339 0.39454510808
          7.2541003227 -10.037502289 0.2434091568 1.1248189211 -4.7393255234 0.29717767239
          5.8258757591 -9.885386467 6.9695547609e-06 0.25499537587 -1.4305256605 0.082838691771
          0.37144225836 -2.4160857201 -1.5885467519e-06 2.8162608147 -8.0905036926 7.1829354056e-06
          0.94044804573 -4.8930301666 1.0863836906e-05 0.50160449743 -3.5254304409 -0.18468645215
          4.5282316208 -9.7016820908 -0.39356252551 10.384780884 -10.510081291 0.60606437922
          0 0 0 1.721624136 -6.3647203445 0.14945857227
          0.15778279305 -0.6142231822 0.12046067417 0.49447152019 -3.5755124092 -0.092610873282
          3.9373540878 -8.0908899307 0.43367129564 8.7801294327 -10.224722862 0.54942470789
          4.5378594398 -9.7427310944 -0.19933082163 11.391483307 -12.172717094 -0.59652405977
          0 0 0 0.68148225546 -3.4272816181 0.24349027872
          11.399803162 -12.217531204 -0.29655343294 0.091006077826 -0.62951433659 -0.066776275635
          9.6862707138 -11.886165619 -0.53246808052 5.8253288269 -9.8713264465 0.21746239066
          0 0 0 0.37621602416 -2.4006216526 0.090821355581
          9.6948575974 -11.931564331 -0.26552990079 0.070860505104 -0.66377204657 -0.028029739857
          2.8405697346 -8.0809392929 0.18466588855 0.93051952124 -4.860886097 0.11351174861
          7.2378792763 -9.9956502914 0.48868438601 0.49305024743 -3.5915596485 1.9511244318e-06
          4.5349731445 -9.7593193054 7.5191633186e-06 0.28037238121 -1.3861603737 0.15953727067
          2.0435965061 -8.1027793884 -0.17044997215 0.16260628402 -1.4325509071 -0.088757015765
          7.9953885078 -11.635362625 -0.46710202098 1.1437926292 -6.3648862839 -0.23148542643
          11.402919769 -12.231454849 6.9770121627e-06 0 0 0
          2.0520558357 -8.2107648849 -0.11186295748 9.6975231171 -11.945450783 7.3414098551e-06
          0.069383747876 -0.67142647505 -1.4751121853e-06 8.0050859451 -11.680047035 -0.22986289859
          0.14777722955 -1.4798868895 -0.045576363802 1.1706779003 -6.4189138412 -0.11241460592
          1.7390282154 -6.3820419312 0.33759281039 2.0478966236 -8.2161235809 7.3596106631e-06
          0.61282104254 -4.895565033 -0.18097825348 0.49447375536 -3.5755095482 0.092616476119
          3.3547403812 -9.5304946899 -0.32812264562 8.0072517395 -11.691363335 7.7145114119e-06
          5.80864048 -9.8336935043 0.43524947762 4.537861824 -9.7427310944 0.1993458122
          1.177924633 -6.4324250221 1.0361751265e-05 0.14233514667 -1.4937381744 -1.6580100919e-06
          0.38634130359 -2.3520257473 0.17983132601 11.399806023 -12.217532158 0.29656741023
          6.4034667015 -11.508303642 -0.38721159101 0.61930269003 -4.9435143471 -0.08952049166
          0.22400383651 -2.4232192039 -0.10260348767 3.3521602154 -9.5978221893 -0.16996903718
          2.8477876186 -8.028550148 0.39274328947 0.94115638733 -4.8095054626 0.24057017267
          0 0 0 0.21382513642 -2.4762392044 -0.052914105356
          9.6948604584 -11.931564331 0.26554462314 0.070861637592 -0.66377025843 0.028027268127
          6.4133167267 -11.541250229 -0.20003612339 0.61897480488 -4.9599494934 6.4358960117e-06
          3.3505396843 -9.6147623062 7.9565088527e-06 2.0520577431 -8.2107658386 0.11187746376
          6.4130988121 -11.553529739 8.1079106167e-06 0.20992660522 -2.491887331 -3.3921659792e-07
          8.0050888062 -11.680047035 0.22987835109 0.14777906239 -1.4798841476 0.045573651791
          1.1706869602 -6.4189209938 0.11243461072 0.5016091466 -3.5254263878 0.18469114602
          4.5282363892 -9.7016830444 0.39357739687 5.0943818092 -11.422867775 -0.37579652667
          11.391489029 -12.172719002 0.59653806686 0 0 0
          0.27505731583 -3.612865448 -0.1114295572 0.091007463634 -0.62951231003 0.066775120795
          9.6862764359 -11.886167526 0.53248286247 0.61930549145 -4.9435157776 0.089532628655
          3.3521623611 -9.597823143 0.16998484731 5.09115839 -11.448922157 -0.19057056308
          1.415492177 -8.0401649475 -0.16194614768 0.26979854703 -3.6644952297 -0.056826870888
          0.21382698417 -2.4762363434 0.052913859487 6.4133195877 -11.541251183 0.20005235076
          1.4064377546 -8.0911026001 -0.11305433512 2.0605490208 -9.3958206177 -0.18297535181
          0.7468392849 -6.4237966537 -0.16853043437 12.389235497 -13.947322845 -0.58689397573
          0 0 0 10.579162598 -13.662848473 -0.52546083927
          2.0436007977 -8.1027812958 0.17046439648 0.16260975599 -1.4325475693 0.088755704463
          7.9953937531 -11.635363579 0.46711754799 0.74983024597 -6.4668960571 -0.08452668786
          2.0500340462 -9.4871778488 -0.11856096983 1.1438070536 -6.364897728 0.23150297999
          12.394097328 -13.990440369 -0.29191699624 0 0 0
          0.26726043224 -3.6806564331 2.2627687031e-06 5.0937199593 -11.463254929 8.5112524175e-06
          0.016373591498 -0.63348257542 -0.010342108086 10.582530975 -13.706376076 -0.26192039251
          0.0123750614 -0.66970580816 -0.0042151557282 1.4441899061 -8.0976238251 1.0167971595e-05
          8.7955408096 -13.399595261 -0.45794010162 0.75376874208 -6.4823422432 8.601299669e-06
          2.0675804615 -9.5087003708 8.3175209511e-06 12.394919395 -14.003789902 8.6519548859e-06
          0 0 0 0.032224725932 -1.4499665499 -0.016291949898
          8.7936429977 -13.442830086 -0.22792294621 10.58412075 -13.719189644 8.8632550614e-06
          0.6128282547 -4.8955664635 0.18098941445 3.3547446728 -9.5304956436 0.32813826203
          0.011747295037 -0.67809700966 -7.41174631e-07 0.026460211724 -1.5001695156 -0.0083442917094
          6.4034719467 -11.508304596 0.38722783327 0.22400797904 -2.4232158661 0.1026045233
          0.32059261203 -4.9860963821 -0.11573334783 3.8989698887 -11.322793007 -0.35329386592
          0.26980030537 -3.6644937992 0.056831285357 5.0911602974 -11.448922157 0.1905875504
          0.31727877259 -5.0329556465 -0.058666106313 3.8831698895 -11.352514267 -0.17912906408
          1.4064415693 -8.0911045074 0.11307119578 8.794757843 -13.453349113 9.0456251201e-06
          0.024575319141 -1.5151963234 -5.824081768e-07 6.8517832756 -13.167173386 -0.37728083134
          0.74983364344 -6.466899395 0.084543086588 2.0500361919 -9.4871778488 0.11857745051
          12.394100189 -13.990440369 0.29193431139 0 0 0
          0.044255785644 -2.4611456394 -0.025455610827 6.8493618965 -13.201924324 -0.19745221734
          10.582533836 -13.706376076 0.2619381547 0.036219645292 -2.5169377327 -0.013130593114
          0.31631854177 -5.048289299 4.9372356443e-06 3.8865680695 -11.365773201 8.7908010755e-06
          0.012375767343 -0.66970491409 0.004213990178 8.7936458588 -13.442830086 0.22794108093
          6.8538517952 -13.2155056 9.2703330665e-06 0.033667311072 -2.5341939926 4.9451949735e-07
          5.0943861008 -11.422868729 0.37581342459 1.7387733459 -9.8290348053 -0.43028888106
          0.026461416855 -1.5001682043 0.0083434199914 0.27506241202 -3.6128630638 0.11143484712
          0.87791502476 -8.0568685532 -0.16895121336 1.6279584169 -9.73828125 -0.038300603628
          1.4154994488 -8.0401668549 0.1619618535 0.8902746439 -8.096206665 -0.078930310905
          0.31728065014 -5.0329556465 0.058675933629 3.8831717968 -11.352515221 0.17914663255
          2.0605533123 -9.3958215714 0.1829918623 0.74684482813 -6.4237999916 0.16854484379
          0.045010350645 -3.6761267185 -0.038296382874 5.5960903168 -13.156792641 -0.42311757803
          12.389241219 -13.947323799 0.58691138029 0 0 0
          10.579169273 -13.662849426 0.52547872066 0.034817080945 -3.729916811 -0.019938873127
          1.7870118618 -9.7895174026 -1.575663191e-07 0.35846859217 -6.5053491592 -0.11609562486
          2.4298911095 -11.169079781 -0.33661854267 5.5948491096 -13.177258492 -0.20069789886
          0.016374710947 -0.63348168135 0.010341724381 0.89364635944 -8.1016578674 8.2694932644e-06
          6.8493647575 -13.201924324 0.19747079909 0.036221116781 -2.5169363022 0.013131823391
          2.4092838764 -11.192170143 -0.15981192887 0.36015021801 -6.5460662842 -0.058521356434
          8.7955465317 -13.399596214 0.45795837045 0.031921252608 -3.7473516464 2.2912274744e-06
          5.5969352722 -13.189927101 9.5698233054e-06 0.032227110118 -1.4499651194 0.016291940585
          2.4250500202 -11.206684113 9.040490113e-06 13.363650322 -15.832466125 -0.57551312447
          0 0 0 0.36045241356 -6.5596861839 6.9441662163e-06
          13.366799355 -15.86903286 -0.2870927453 0 0 0
          1.6279608011 -9.7382822037 0.038317456841 11.4655056 -15.557516098 -0.52616298199
          0.32059729099 -4.9860959053 0.11574283242 3.8989737034 -11.322793961 0.35331135988
          -0.064233750105 -0.62669450045 0.048744313419 0.89027816057 -8.0962095261 0.078947141767
          11.466280937 -15.593572617 -0.26209124923 -0.051106467843 -0.66387319565 0.020707998425
          6.8517885208 -13.167174339 0.377299577 13.366288185 -15.88083744 1.0428998394e-05
          0.03481869027 -3.7299158573 0.019943630323 9.5731449127 -15.31804657 -0.47685721517
          -0.10936397314 -1.4389647245 0.060223028064 5.5948514938 -13.177259445 0.20071698725
          0 0 0 4.3813180923 -13.133743286 -0.40317380428
          0.025030866265 -5.0753216743 -0.053312204778 0.044259380549 -2.4611439705 0.025457533076
          -0.10430268198 -1.4924110174 0.031314145774 9.5660772324 -15.350984573 -0.23812375963
          11.466825485 -15.604982376 1.0470769666e-05 2.4092860222 -11.192170143 0.15983003378
          0.015822777525 -5.12240839 -0.027637358755 4.3834481239 -13.153202057 -0.198824808
          0.36015245318 -6.5460672379 0.058534961194 -0.050557661802 -0.67232507467 -2.6260357799e-07
          1.0025038719 -9.7631807327 -0.13147942722 9.5662431717 -15.363253593 1.0476977877e-05
          1.7387764454 -9.829035759 0.43030545115 -0.1023305133 -1.5080595016 8.7226318612e-08
          0.013296918012 -5.1385011673 4.3460768211e-06 1.0329008102 -9.7874097824 -0.10865677148
          4.3847718239 -13.163956642 9.6720459624e-06 0.87792062759 -8.0568714142 0.16896703839
          13.366802216 -15.86903286 0.28711360693 7.6371893883 -15.08887291 -0.4509960413
          0.395052284 -8.1259050369 -0.10938837379 0 0 0
          -0.14720535278 -2.4598252773 0.056740198284 2.0108394623 -11.486079216 -0.49154898524
          -0.15342912078 -2.5212244987 0.028817158192 7.6259713173 -15.119767189 -0.2166377604
          11.466284752 -15.593572617 0.26211223006 0.39983943105 -8.1595010757 -0.058006510139
          2.0991482735 -11.47503376 -0.14822150767 -0.051105946302 -0.66387277842 -0.020708344877
          0.045014470816 -3.676125288 0.038301415741 5.5960941315 -13.156793594 0.4231364727
          1.0119572878 -9.7602510452 9.4020688266e-06 0.35847342014 -6.5053501129 0.11610855162
          2.4298949242 -11.169080734 0.33663657308 7.628713131 -15.131144524 1.0453356481e-05
          9.5660810471 -15.350984573 0.23814475536 0.40150427818 -8.1707839966 8.0277577581e-06
          -0.10430169851 -1.4924104214 -0.031313780695 -0.15432043374 -2.5400714874 1.0451443586e-06
          0.015824507922 -5.1224079132 0.027646012604 4.3834500313 -13.153202057 0.19884410501
          2.0808825493 -11.483675003 8.5641249825e-06 3.1334121227 -13.124638557 -0.40116178989
          -0.015454257838 -6.6107282639 -0.065212056041 3.1421022415 -13.156322479 -0.18032084405
          -0.020855803043 -6.6502728462 -0.034213498235 13.363656044 -15.832467079 0.5755340457
          0 0 0 1.0329034328 -9.7874126434 0.1086724475
          -0.19578018785 -3.7089338303 0.036826360971 6.3713297844 -15.109880447 -0.38370648026
          -0.21128623188 -3.7681283951 0.017805604264 11.465512276 -15.557516098 0.52618402243
          -0.064232744277 -0.62669420242 -0.04874413088 6.3951311111 -15.120941162 -0.18432791531
          7.6259746552 -15.119767189 0.21665872633 0.39984172583 -8.1595020294 0.058022134006
          -0.15342780948 -2.5212237835 -0.028814932331 2.0991501808 -11.475034714 0.14823888242
          3.1414482594 -13.161746025 9.6516232588e-06 -0.022081242874 -6.6650810242 6.0812749325e-06
          9.5731506348 -15.31804657 0.47687831521 -0.10936183482 -1.4389641285 -0.060222160071
          4.3813214302 -13.13374424 0.40319296718 -0.2146474719 -3.7877366543 2.4778726129e-06
          0.025035215542 -5.0753207207 0.053320806473 6.3849577904 -15.122107506 1.057146892e-05
          14.312035561 -17.800498962 -0.56369024515 0 0 0
          1.0025081635 -9.7631807327 0.13149537146 3.1421041489 -13.156323433 0.18034012616
          0 0 0 12.337316513 -17.532255173 -0.52489376068
          0.42769482732 -9.8120231628 -0.10017104447 -0.020853985101 -6.6502728462 0.034225538373
          -0.14834660292 -0.61616754532 0.10802986473 1.0652495623 -11.484525681 -0.080099701881
          14.314950943 -17.829553604 -0.28163439035 7.6371955872 -15.08887291 0.45101720095
          12.338487625 -17.5605793 -0.26245254278 -0.11596480012 -0.64949047565 0.045881357044
          0.39505645633 -8.1259059906 0.1094032377 0.42993283272 -9.845664978 -0.047856140882
          -0.14720226824 -2.4598245621 -0.056737571955 4.8628029823 -14.936513901 -0.35271021724
          -0.21128474176 -3.7681276798 -0.017800595611 2.0108428001 -11.486079216 0.4915663898
          -0.27654370666 -5.1614518166 0.0081346044317 6.3951325417 -15.120941162 0.18434901536
          1.0541421175 -11.530958176 -0.077670946717 -0.29473054409 -5.2111225128 0.0019442134071
          4.8827047348 -14.948853493 -0.18127182126 10.376106262 -17.283910751 -0.48993936181
          14.314100266 -17.839096069 1.2326565411e-05 -0.26249450445 -1.3980998993 0.14467813075
          0 0 0 10.371335983 -17.310728073 -0.24466101825
          -0.24216859043 -1.4530979395 0.074448861182 12.338452339 -17.570095062 1.2184527804e-05
          2.269289732 -13.233437538 -0.20247401297 0.43366664648 -9.8589792252 8.3204740804e-06
          1.0581833124 -11.525068283 8.5350002337e-06 -0.063730031252 -8.2286558151 -0.070271275938
          -0.1148032099 -0.6572419405 1.5738780945e-08 2.2757589817 -13.31403923 -0.1263871789
          4.8819389343 -14.952548981 1.0498615666e-05 -0.064566835761 -8.2635393143 -0.03639600426
          -0.29858988523 -5.229642868 4.0878194341e-06 3.133415699 -13.124638557 0.40118098259
          10.370365143 -17.319974899 1.1999628441e-05 -0.015450200997 -6.610727787 0.06522372365
          -0.23511300981 -1.4681142569 4.8841974376e-07 8.3981046677 -17.050840378 -0.45596718788
          14.314953804 -17.829553604 0.28165906668 2.2686908245 -13.311628342 9.4727593023e-06
          -0.35229179263 -2.4116916656 0.1518343538 -0.19577646255 -3.708933115 -0.036821145564
          -0.064572826028 -8.2777614594 7.2728876148e-06 6.3713335991 -15.109879494 0.3837274909
          0 0 0 8.392580986 -17.075220108 -0.22841410339
          -0.3537171483 -2.4824461937 0.078519448638 12.33849144 -17.5605793 0.26247695088
          0.42993506789 -9.8456659317 0.047872874886 1.0541445017 -11.530959129 0.077688060701
          -0.11596436799 -0.64949029684 -0.045881208032 4.8827066422 -14.948853493 0.1812928021
          -0.29472896457 -5.211122036 -0.0019360532751 10.371339798 -17.310728073 0.24468506873
          8.390786171 -17.084487915 1.1796670151e-05 3.6544408798 -14.78512001 -0.32164123654
          -0.39878568053 -6.7425336838 -0.021315069869 -0.35163959861 -2.5022029877 1.3839592157e-06
          -0.24216772616 -1.4530975819 -0.074447765946 -0.41057413816 -6.7841148376 -0.011899666861
          2.2757611275 -13.31403923 0.12640616298 3.6583142281 -14.822049141 -0.16550965607
          -0.064564973116 -8.2635393143 0.036410398781 6.7958517075 -16.95063591 -0.22043806314
          14.312042236 -17.800498962 0.56371504068 0 0 0
          -0.45836624503 -3.7050163746 0.1239875108 6.8169026375 -16.899036407 -0.14099942148
          12.337324142 -17.532255173 0.52491825819 -0.48050644994 -3.7770369053 0.060930091888