<?xml version="1.0"?>
<VTKFile type="UnstructuredGrid" version="0.1" byte_order="LittleEndian" header_type="UInt32" compressor="vtkZLibDataCompressor">
  <UnstructuredGrid>
    <Piece NumberOfPoints="6405" NumberOfCells="4800">
      <PointData>
        <DataArray type="Float32" Name="DISPLACEMENT" NumberOfComponents="3" ComponentName0="X-DISPLACEMENT" ComponentName1="Y-DISPLACEMENT" ComponentName2="Z-DISPLACEMENT" format="ascii" RangeMin="0" RangeMax="282.51478659">
          0 0 0 0 0 0
          2.244915247 -1.3927861452 -1.0306994915 0 0 0
          1.4063618183 -0.83317840099 -0.77471423149 0 0 0
          2.0562417507 -1.5442863703 -0.4077809751 1.2240250111 -0.95758354664 -0.3154039681
          0 0 0 4.0147409439 -2.6266930103 -1.0453613997
          0 0 0 3.9631874561 -2.8001050949 -0.53881210089
          2.8171124458 -2.1920247078 -0.85765588284 0 0 0
          0 0 0 2.0646190643 -1.5926458836 2.6387408525e-07
          0.98241603374 -0.56956171989 -0.56151068211 1.2196763754 -0.97944790125 1.2825211115e-07
          2.760684967 -2.3297102451 -0.43691012263 0.84329473972 -0.67875432968 -0.22932159901
          3.9200017452 -2.8484268188 6.9196016739e-07 1.9475507736 -1.8662967682 -0.66091674566
          0 0 0 2.7247917652 -2.3742117882 4.299998011e-07
          1.8835982084 -1.9877874851 -0.3394382298 0 0 0
          5.5957169533 -4.2107715607 -0.96800684929 0 0 0
          0.83903509378 -0.69398087263 -5.4558686458e-08 0 0 0
          0 0 0 2.0562419891 -1.5442862511 0.40778154135
          4.1292853355 -3.795160532 -0.8125371933 5.618581295 -4.3345246315 -0.49342766404
          0.44375658035 -0.3815792501 -0.34857574105 1.2240252495 -0.95758336782 0.31540423632
          4.1484069824 -3.9117748737 -0.41434118152 0.31708487868 -0.4897069931 -0.16044232249
          1.8536088467 -2.0256679058 1.0566979824e-07 3.9631876945 -2.8001048565 0.5388135314
          0 0 0 0 0 0
          1.112016201 -1.6764881611 -0.5151694417 2.9427001476 -3.4671444893 -0.66241788864
          5.6052136421 -4.3790435791 1.2746615994e-06 2.7606854439 -2.3297097683 0.4369110465
          2.9396076202 -3.579927206 -0.33713912964 0.84329497814 -0.67875403166 0.2293215543
          4.1398258209 -3.9508225918 8.774919138e-07 1.0587017536 -1.7833989859 -0.2527756393
          0.30566778779 -0.5016361475 -2.9209635954e-07 0 0 0
          7.0409817696 -5.997238636 -0.85146397352 0 0 0
          5.3709344864 -5.6156778336 -0.74000453949 1.8835988045 -1.9877868891 0.33943849802
          7.0864162445 -6.0837893486 -0.43114098907 2.2449157238 -1.3927857876 1.0307000875
          0 0 0 0 0 0
          1.0357300043 -1.8194547892 -2.8050294532e-07 2.9283368587 -3.6156020164 4.3520009285e-07
          0.2809124887 -0.5222864747 -0.33890122175 5.4105572701 -5.7026157379 -0.37364915013
          1.4063624144 -0.83317792416 0.77471464872 1.9189494848 -3.2194206715 -0.49501729012
          0 0 0 5.6185822487 -4.3345236778 0.49343025684
          0.27777725458 -0.59793281555 -0.14610548317 1.9030041695 -3.3392701149 -0.24842518568
          4.1484079361 -3.9117739201 0.41434296966 0.31708550453 -0.48970666528 0.16044183075
          3.9677736759 -5.2889041901 -0.62349933386 0.52501624823 -1.6519124508 -0.28376221657
          7.0875425339 -6.1141290665 1.9818339752e-06 4.0147418976 -2.6266920567 1.0453628302
          0 0 0 0 0 0
          3.9814052582 -5.3784294128 -0.31446990371 2.8171136379 -2.1920237541 0.85765689611
          5.416639328 -5.7325692177 1.4539629092e-06 0.53152048588 -1.793025136 -0.14755262434
          0.98241651058 -0.56956118345 0.56151080132 0.29297941923 -0.65077024698 -8.9636182565e-07
          1.888389945 -3.369641304 -7.653423495e-08 2.9396085739 -3.5799262524 0.33714002371
          1.0587028265 -1.7833983898 0.25277507305 3.9815957546 -5.406288147 8.7972466645e-07
          1.9475518465 -1.8662954569 0.6609171629 0.51950186491 -1.8269809484 -8.0578672623e-07
          2.6693170071 -5.0308842659 -0.4866797626 7.0864167213 -6.0837883949 0.43114501238
          5.5957183838 -4.2107701302 0.9680095315 0 0 0
          8.3394680023 -7.9327740669 -0.75148808956 0 0 0
          0 0 0 0.76029276848 -3.0821316242 -0.25725537539
          2.64813447 -5.1235003471 -0.2479826808 8.3831701279 -7.9894304276 -0.37805697322
          6.5266222954 -7.58974123 -0.67806529999 5.4105582237 -5.7026143074 0.37365210056
          -0.18426413834 -0.66780239344 -0.19971676171 0 0 0
          4.1292867661 -3.7951588631 0.81253904104 0.44375747442 -0.38157853484 0.34857556224
          0.73277592659 -3.2198007107 -0.14858300984 0.27777817845 -0.59793233871 0.14610379934
          -0.21398988366 -0.75642573833 -0.090164676309 1.9030051231 -3.3392689228 0.24842503667
          6.5646338463 -7.6494650841 -0.33952650428 3.9814064503 -5.3784284592 0.31447169185
          2.6417548656 -5.1491341591 2.3877367994e-07 8.3897161484 -8.0100641251 2.8031736292e-06
          -0.015325757675 -1.9014093876 -0.24858102202 0.53152132034 -1.7930243015 0.14755094051
          0 0 0 4.9421944618 -7.3114013672 -0.60215008259
          1.1120178699 -1.6764866114 0.51516896486 2.942702055 -3.4671425819 0.66241890192
          0.72524052858 -3.2502160072 -7.1281937153e-07 6.5744786263 -7.6705493927 2.1563239443e-06
          -0.22399298847 -0.78261744976 -1.8149853531e-06 -0.098708644509 -1.9690597057 -0.090584799647
          4.956761837 -7.370871067 -0.30055889487 7.0409836769 -5.9972362518 0.85146808624
          0 0 0 1.1136078835 -4.8502588272 -0.34852790833
          5.3709368706 -5.6156759262 0.74000757933 -0.085337340832 -2.0172839165 -1.9282535959e-06
          1.072198391 -4.9463205338 -0.18286934495 4.9616956711 -7.3909845352 1.4676397768e-06
          0.28091359138 -0.5222851038 0.33889967203 2.6481356621 -5.1234989166 0.24798321724
          3.4491713047 -7.1206026077 -0.52732783556 8.3831710815 -7.989428997 0.37806260586
          0.21084837615 -3.3996915817 -0.39021039009 1.918951273 -3.2194185257 0.4950171411
          0 0 0 0.73277670145 -3.2197992802 0.14858160913
          3.4330880642 -7.1684961319 -0.26517572999 -0.21398872137 -0.7564252615 0.090161047876
          0.12218804657 -3.3973309994 -0.14461021125 6.5646352768 -7.6494641304 0.33953082561
          3.9677760601 -5.2889018059 0.6235011816 0.52501773834 -1.6519105434 0.28376030922
          9.5027065277 -9.9495353699 -0.67614465952 0 0 0
          1.0730481148 -4.9737639427 -4.4714263936e-07 7.5877323151 -9.6427183151 -0.62925064564
          9.5375452042 -9.986738205 -0.33952105045 0 0 0
          0.091054342687 -0.94500768185 -0.11390241235 7.6191167831 -9.6829557419 -0.31403037906
          3.4322752953 -7.1869077682 7.3064973094e-07 0.04110660404 -0.99528062344 -0.041584055871
          -0.098707422614 -1.9690588713 0.090581022203 0.14464880526 -3.4522099495 -1.861090027e-06
          4.9567632675 -7.3708696365 0.3005618751 5.849468708 -9.4025249481 -0.58186542988
          0.08164704591 -2.1064741611 -0.18838950992 9.5450220108 -10.00079155 3.7267079733e-06
          0 0 0 0.042780332267 -2.1602509022 -0.090486295521
          5.8677687645 -9.4408950806 -0.29022789001 7.6283521652 -9.6977815628 2.9689040275e-06
          0.037870056927 -1.0114512444 -1.1067756986e-06 2.6693191528 -5.0308818817 0.48668044806
          1.7943474054 -6.9496583939 -0.50827854872 8.3394699097 -7.9327712059 0.75149381161
          0 0 0 0.55705362558 -5.1084399223 -0.53966188431
          1.0721997023 -4.9463191032 0.18286855519 0.76029425859 -3.0821290016 0.25725406408
          6.5266251564 -7.589738369 0.67806971073 -0.18426258862 -0.66780048609 0.19971314073
          0.53047865629 -5.0723314285 -0.2149438262 1.7545740604 -6.9756608009 -0.23901741207
          3.4330892563 -7.1684951782 0.26517724991 0.12218958139 -3.3973295689 0.14460672438
          5.8733029366 -9.4552812576 2.1853297767e-06 0.022251280025 -2.1774599552 -1.8215088176e-06
          4.2107920647 -9.247549057 -0.54481339455 0.12733969092 -3.54890728 -0.23298299313
          -0.01532372646 -1.9014071226 0.24857738614 9.5375471115 -9.9867362976 0.33952853084
          4.9421973228 -7.311398983 0.60215318203 0 0 0
          1.7448545694 -6.9899287224 -4.1402142159e-08 0.54147094488 -5.11388731 -1.5510955791e-06
          4.2174057961 -9.2769813538 -0.27316659689 7.6191182137 -9.6829538345 0.31403633952
          0.072110041976 -3.6114802361 -0.15754689276 0.041106823832 -0.99528002739 0.041581880301
          1.1136102676 -4.850256443 0.34852740169 4.2199110985 -9.2917499542 1.3681470818e-06
          5.867770195 -9.4408941269 0.29023227096 0.042780816555 -2.1602501869 0.090482696891
          0.08088080585 -3.6129050255 -2.2221252038e-06 10.564243317 -11.997086525 -0.62713479996
          0 0 0 10.589071274 -12.025828362 -0.31459626555
          3.4491739273 -7.1206002235 0.52732950449 8.5735340118 -11.711174965 -0.59107714891
          0.21085086465 -3.3996887207 0.39020729065 1.0270334482 -7.0454640388 -0.52321392298
          0.060031417757 -1.0616912842 -0.069939061999 0.53048068285 -5.0723304749 0.21494099498
          1.7545762062 -6.9756593704 0.23901742697 0 0 0
          8.5975151062 -11.742955208 -0.2945240736 1.068610549 -7.0645232201 -0.2435259372
          0.032661039382 -1.0949103832 -0.026861755177 2.6771552563 -9.1066112518 -0.54367423058
          0.049610383809 -5.4662380219 -0.58486348391 9.5027093887 -9.9495325089 0.67615222931
          0 0 0 7.5877351761 -9.6427154541 0.62925672531
          10.596348763 -12.036840439 4.732196885e-06 0.093062601984 -5.428144455 -0.27590179443
          2.6647341251 -9.1284303665 -0.25967088342 0.091053947806 -0.9450070262 0.11390057206
          6.7034101486 -11.486913681 -0.55094403028 0.072367779911 -2.2840869427 -0.11009090394
          0 0 0 4.2174072266 -9.2769794464 0.27316936851
          0.072110854089 -3.6114792824 0.15754251182 8.6047906876 -11.754343033 3.8657276491e-06
          1.0664739609 -7.0797224045 -9.6533017313e-07 6.724594593 -11.518107414 -0.27472263575
          0.040126115084 -2.3371448517 -0.055771157146 0.028381513432 -1.1060205698 -8.4693471081e-07
          5.8494715691 -9.4025220871 0.58186990023 0.08164717257 -2.1064732075 0.18838627636
          2.6411905289 -9.1325826645 5.5475942418e-07 0.11130930483 -5.4211554527 -2.7008186407e-06
          1.7943508625 -6.9496555328 0.50827890635 6.7296738625 -11.529186249 2.9873210678e-06
          0.03323160857 -2.352645874 -1.6069305957e-06 0.55705672503 -5.1084370613 0.5396592617
          10.589073181 -12.025826454 0.31460574269 4.960267067 -11.334026337 -0.51649290323
          0 0 0 0.045342713594 -3.7563500404 -0.16179664433
          4.9791402817 -11.362738609 -0.25697794557 8.5975170135 -11.7429533 0.29453185201
          0.03266107291 -1.0949100256 0.02686018683 1.0686124563 -7.0645222664 0.24352404475
          0.023977264762 -3.8216600418 -0.083032146096 4.2107949257 -9.247546196 0.54481625557
          1.4418058395 -9.0424404144 -0.39858269691 2.6647365093 -9.1284284592 0.2596719563
          0.12734043598 -3.5489058495 0.23297931254 0.093064241111 -5.4281435013 0.27589660883
          0.39231798053 -7.3874721527 -0.52442681789 1.4721618891 -9.1037817001 -0.22809629142
          4.9797964096 -11.373153687 2.0923864668e-06 6.7245960236 -11.518105507 0.27472862601
          0.040126170963 -2.3371443748 0.055768024176 0.39954158664 -7.3925375938 -0.23328728974
          0.015163267963 -3.8391940594 -2.2398353394e-06 11.571661949 -14.058790207 -0.60306823254
          0 0 0 0.019415825605 -1.1190397739 -0.027176277712
          1.4873425961 -9.1057872772 -2.5302398399e-07 3.4277131557 -11.221644402 -0.47385820746
          9.5113506317 -13.779309273 -0.56339901686 10.564246178 -11.997083664 0.62714439631
          0 0 0 0 0 0
          0.43214482069 -7.3976998329 -2.176272119e-06 0.096225805581 -5.4683585167 -0.15639778972
          11.586647987 -14.088839531 -0.30180796981 3.4416646957 -11.249760628 -0.23977585137
          9.5276966095 -13.812099457 -0.28029146791 8.5735378265 -11.71117115 0.59108495712
          0.007577595301 -1.1493412256 -0.010503144003 1.0270366669 -7.0454611778 0.52321177721
          0.060030810535 -1.0616909266 0.06993753463 0.062285959721 -5.5686302185 -0.10841757804
          4.979142189 -11.362736702 0.25698211789 0.023977525532 -3.8216593266 0.083027787507
          7.5157513618 -13.558000565 -0.51775246859 2.6771593094 -9.1066083908 0.54367518425
          0.049612943083 -5.466234684 0.58485817909 0 0 0
          0.0080824997276 -2.3946254253 -0.043132353574 11.592906952 -14.099657059 5.7985139392e-06
          0.0060052182525 -1.157875061 -6.561613759e-07 3.4391360283 -11.25522995 1.178655566e-06
          7.5336303711 -13.589081764 -0.25653940439 6.7034134865 -11.486909866 0.55095005035
          9.533203125 -13.822973251 4.824939424e-06 0.072367191315 -2.2840862274 0.11008802056
          0.049888592213 -5.5678925514 -2.6083507692e-06 -0.0026329667307 -2.4413256645 -0.020491154864
          1.4721633196 -9.1037797928 0.22809557617 0.39954295754 -7.3925361633 0.2332829088
          0.7442265749 -9.4024162292 -0.53065478802 7.536529541 -13.596658707 3.8424905142e-06
          -0.0074180201627 -2.4565804005 -1.3709553741e-06 0.72459423542 -9.3684234619 -0.22538715601
          5.6523623466 -13.432543755 -0.4686613977 0 0 0
          -0.0080354297534 -3.8640856743 -0.046644922346 11.586648941 -14.088837624 0.30181959271
          0.0075775207952 -1.1493411064 0.01050188113 3.4416663647 -11.24975872 0.23977816105
          5.6673078537 -13.456973076 -0.22905375063 4.9602704048 -11.334022522 0.51649707556
          9.5276985168 -13.812097549 0.28030115366 1.8314664364 -11.102552414 -0.41345876455
          0.13984555006 -7.3338551521 -0.16491276026 0.045342672616 -3.7563488483 0.16179257631
          -0.019091499969 -3.9284996986 -0.023610811681 0.062286391854 -5.5686292648 0.10841234773
          1.8410518169 -11.136865616 -0.20964576304 0.079678058624 -7.4580230713 -0.14675422013
          0.77157133818 -9.4093475342 -1.8322414235e-06 1.4418085814 -9.0424365997 0.39858153462
          7.5336318016 -13.589079857 0.25654712319 0.39232057333 -7.387468338 0.52442240715
          5.6632781029 -13.46148777 2.8430283692e-06 -0.0026331206318 -2.4413254261 0.020488450304
          -0.024747483432 -3.9478604794 -2.0276388568e-06 1.8618910313 -11.151833534 3.8472720121e-08
          0.089105568826 -7.4569449425 -2.7940782275e-06 -0.023393549025 -5.5428943634 -0.043850161135
          3.9970252514 -13.415910721 -0.43500113487 11.57166481 -14.058786392 0.60307991505
          0 0 0 0.72459572554 -9.3684215546 0.22538374364
          0.019415114075 -1.1190396547 0.02717497386 -0.037851247936 -5.6245837212 -0.02119095251
          3.4277164936 -11.221640587 0.47386035323 9.5113544464 -13.779305458 0.56340873241
          4.0092420578 -13.420024872 -0.21208032966 12.565267563 -16.153482437 -0.5983094573
          0 0 0 0.096226163208 -5.4683570862 0.15639312565
          12.571892738 -16.190475464 -0.29854825139 -0.024001788348 -1.1435055733 0.014032667503
          10.4266119 -15.871371269 -0.54733252525 5.6673092842 -13.456971169 0.22905944288
          0 0 0 -0.019091626629 -3.9284992218 0.02360682562
          10.434814453 -15.910367012 -0.27231284976 -0.020711435005 -1.1714295149 0.0062516173348
          1.8410531282 -11.136863708 0.20964594185 0.07967890054 -7.4580216408 0.14674864709
          7.5157551765 -13.557995796 0.51776021719 -0.043795969337 -5.6526713371 -2.5588065e-06
          4.0089640617 -13.421797752 1.7387206981e-06 0.0080816186965 -2.3946251869 0.043129764497
          1.103012085 -11.43431282 -0.58341664076 -0.048889912665 -2.4354732037 0.018081136048
          8.3004016876 -15.638800621 -0.49050137401 0.025358034298 -9.7526245117 -0.59034091234
          12.576560974 -16.202856064 6.9155576057e-06 0 0 0
          1.1288660765 -11.394304276 -0.23204982281 10.438121796 -15.922588348 5.834894182e-06
          -0.020945992321 -1.1791131496 -5.1191699413e-07 8.3150148392 -15.674826622 -0.24149408937
          -0.047225303948 -2.4770948887 0.010166315362 0.052186004817 -9.693936348 -0.30801540613
          0.74422937632 -9.4024124146 0.53065150976 1.1334617138 -11.42276001 -1.4018895627e-06
          -0.04718766734 -7.465921402 -0.075652934611 -0.03785122931 -5.6245832443 0.021185975522
          2.4809229374 -13.434456825 -0.4854401052 8.3195915222 -15.682610512 4.7459966481e-06
          5.6523656845 -13.43253994 0.46866711974 4.0092434883 -13.420022964 0.21208389103
          0.088532626629 -9.6868753433 -2.9724069464e-06 -0.047201566398 -2.4909460545 -1.1384325944e-06
          -0.0080361831933 -3.8640851974 0.04664118588 12.571894646 -16.190473557 0.29856210947
          6.2474360466 -15.518242836 -0.43096360564 -0.058771785349 -7.5535111427 -0.036264814436
          -0.074211157858 -3.9072806835 0.024100851268 2.4507212639 -13.404150963 -0.21747234464
          1.831469059 -11.102548599 0.41345930099 0.13984659314 -7.3338527679 0.16490782797
          0 0 0 -0.073102094233 -3.958966732 0.014135792851
          10.43481636 -15.910365105 0.27232453227 -0.020711570978 -1.1714293957 -0.0062526217662
          6.2431845665 -15.534531593 -0.21279835701 -0.068190589547 -7.5803747177 -2.913247954e-06
          2.4095563889 -13.382793427 6.7056612352e-07 1.1288678646 -11.394302368 0.23204742372
          6.2234506607 -15.52863121 3.6487626858e-06 -0.07441700995 -3.9775848389 -1.7715277636e-06
          8.3150167465 -15.674824715 0.24150359631 -0.047225583345 -2.4770948887 -0.010168584995
          0.052187453955 -9.6939344406 0.30800965428 -0.023393958807 -5.5428934097 0.043845500797
          3.9970281124 -13.415906906 0.43500488997 4.4716305733 -15.546551704 -0.40371316671
          12.565271378 -16.153478622 0.59832340479 0 0 0
          -0.095216766 -5.5852713585 0.031351737678 -0.024002509192 -1.1435055733 -0.014033779502
          10.426615715 -15.871366501 0.54734426737 -0.058771584183 -7.5535101891 0.036259088665
          2.4507238865 -13.404150009 0.21747377515 4.4585003853 -15.547346115 -0.19725486636
          0.33603397012 -11.803443909 -0.58801913261 -0.094548679888 -5.6433529854 0.018640980124
          -0.073102414608 -3.9589664936 -0.014139285311 6.2431864738 -15.534528732 0.21280568838
          0.4022886157 -11.78153801 -0.27872630954 1.4877029657 -13.584378242 -0.46169832349
          -0.010093646124 -9.5395011902 -0.046676672995 13.568655968 -18.316291809 -0.60463523865
          0 0 0 11.335957527 -18.028432846 -0.54299914837
          1.1030150652 -11.434308052 0.58341443539 -0.04889094457 -2.4354732037 -0.018083373085
          8.3004055023 -15.638795853 0.49051094055 -0.041632477194 -9.6639690399 -0.087574452162
          1.5237108469 -13.58050251 -0.2371032089 0.025360405445 -9.7526197433 0.59033536911
          13.569011688 -18.360982895 -0.30136221647 0 0 0
          -0.097283363342 -5.665810585 -2.3236066227e-06 4.4258537292 -15.548220634 2.5656843263e-06
          -0.064086474478 -1.1350545883 0.054179884493 11.337946892 -18.074369431 -0.2703846395
          -0.047933202237 -1.1619414091 0.022619403899 0.40795755386 -11.757344246 -2.6762138532e-06
          9.0875072479 -17.779272079 -0.47610148787 -0.029208991677 -9.6777820587 -3.0882063129e-06
          1.5240154266 -13.56288147 -3.2416869544e-07 13.571527481 -18.375570297 8.0860754679e-06
          0 0 0 -0.10319063067 -2.4167866707 0.071930579841
          9.0942153931 -17.824296951 -0.23595568538 11.339824677 -18.088720322 6.8936428761e-06
          -0.04718759656 -7.4659204483 0.075647599995 2.4809272289 -13.434453011 0.48544165492
          -0.046885747463 -1.1689808369 -3.8309647721e-07 -0.091623514891 -2.4553034306 0.037032898515
          6.2474393845 -15.518238068 0.43097096682 -0.07421220839 -3.9072806835 -0.024104209617
          -0.10050489753 -7.4603962898 0.046456560493 3.0912008286 -15.598798752 -0.43345451355
          -0.094548948109 -5.6433525085 -0.018645560369 4.4585022926 -15.547344208 0.19725997746
          -0.1051754877 -7.5309524536 0.021661730483 3.0915622711 -15.589067459 -0.21108052135
          0.40229001641 -11.781536102 0.27872115374 9.0968980789 -17.837059021 5.6869621403e-06
          -0.087675333023 -2.4680337906 -9.0984764256e-07 6.8100962639 -17.5977211 -0.40992751718
          -0.041632432491 -9.6639680862 0.087568342686 1.523712039 -13.580500603 0.23710238934
          13.569013596 -18.360980988 0.30137839913 0 0 0
          -0.126650244 -3.8755793571 0.082758761942 6.8199558258 -17.627109528 -0.20372074842
          11.337948799 -18.074367523 0.27039843798 -0.11946284771 -3.9205582142 0.043019518256
          -0.10653609037 -7.5576896667 -2.7709745609e-06 3.0714154243 -15.585623741 1.4889488966e-06
          -0.0479333736 -1.1619414091 -0.022620173171 9.0942173004 -17.824295044 0.23596708477
          6.8206014633 -17.628080368 4.4810453801e-06 -0.11713811755 -3.9364178181 -1.4843852796e-06
          4.4716334343 -15.546546936 0.40371826291 0.72352319956 -13.901646614 -0.49873951077
          -0.091623865068 -2.4553034306 -0.037034735084 -0.095217645168 -5.5852713585 -0.031356085092
          -0.13311517239 -11.888903618 -0.23970407248 0.74521023035 -13.89158535 -0.21847942472
          0.33603659272 -11.803440094 0.58801394701 -0.12622031569 -11.949484825 -0.17904210091
          -0.10517568141 -7.5309519768 -0.021667180583 3.09156394 -15.589065552 0.21108338237
          1.4877055883 -13.584373474 0.46169677377 -0.010093494318 -9.5394992828 0.046670794487
          -0.13398060203 -5.5305657387 0.09172809124 4.8458347321 -17.578626633 -0.3646928072
          13.568659782 -18.316286087 0.60465145111 0 0 0
          11.335962296 -18.028429031 0.54301297665 -0.12952913344 -5.5790338516 0.047505229712
          0.74047160149 -13.890040398 -2.0533666429e-06 -0.11685780436 -9.5347652435 0.040079321712
          1.8553394079 -15.590278625 -0.42405873537 4.8123173714 -17.556020737 -0.18861965835
          -0.064087167382 -1.1350547075 -0.054180797189 0.00096734805265 -11.82238102 -3.3606984289e-06
          6.8199577332 -17.62710762 0.20372973382 -0.11946327984 -3.9205582142 -0.043022468686
          1.8505704403 -15.587802887 -0.19304709136 -0.11991947144 -9.6129322052 0.022840211168
          9.0875110626 -17.779268265 0.47611296177 -0.12837904692 -5.5979423523 -2.0323607259e-06
          4.7467894554 -17.524723053 3.3746425743e-06 -0.10319168866 -2.4167869091 -0.071932449937
          1.830211401 -15.586590767 6.609002412e-08 14.588167191 -20.577531815 -0.61483436823
          0 0 0 -0.11365859956 -9.6313838959 -3.1162705909e-06
          14.585217476 -20.627830505 -0.30664595962 0 0 0
          0.74521172047 -13.891582489 0.2184754312 12.250442505 -20.284648895 -0.54640054703
          -0.10050556064 -7.460395813 -0.046461734921 3.0912041664 -15.59879303 0.43345701694
          -0.10386274755 -1.0945919752 0.094780988991 -0.12622058392 -11.949484825 0.1790356338
          12.248206139 -20.335687637 -0.27264079452 -0.075279466808 -1.1214520931 0.039483893663
          6.8101000786 -17.597715378 0.40993660688 14.585990906 -20.644269943 9.3216422101e-06
          -0.12952956557 -5.5790338516 -0.0475092493 9.8836803436 -20.023395538 -0.47582423687
          -0.1566696167 -2.3400323391 0.12576156855 4.8123192787 -17.556018829 0.18862631917
          0 0 0 3.5601432323 -17.637851715 -0.40453100204
          -0.12417528033 -7.3862819672 0.099441029131 -0.12665143609 -3.8755795956 -0.082761660218
          -0.13632342219 -2.3783910275 0.064335159957 9.8855552673 -20.075183868 -0.23689775169
          12.248479843 -20.35231781 8.0053805505e-06 1.8505715132 -15.587800026 0.19304729998
          -0.12016538531 -7.4364728928 0.052307154983 3.5535349846 -17.605920792 -0.1795424372
          -0.11991963536 -9.6129312515 -0.022846337408 -0.073221199214 -1.1279200315 -2.6342070214e-07
          -0.02331302315 -14.210391045 -0.49157255888 9.8877086639 -20.091344833 6.6676984716e-06
          0.72352600098 -13.901641846 0.49873563647 -0.12895186245 -2.3900372982 -6.8612621362e-07
          -0.11975641549 -7.4567875862 -2.515150527e-06 0.014259471558 -14.212137222 -0.22572384775
          3.5340356827 -17.579437256 2.1012192519e-06 -0.13311551511 -11.888902664 0.23969984055
          14.585219383 -20.627828598 0.30666461587 7.4822459221 -19.789405823 -0.40107950568
          -0.10227947682 -11.735305786 0.050127521157 0 0 0
          -0.17768831551 -3.7643296719 0.14121338725 1.0724668503 -15.839840889 -0.45191904902
          -0.16652922332 -3.8095862865 0.072200767696 7.4946165085 -19.838489532 -0.19944271445
          12.248208046 -20.33568573 0.27265682817 -0.11641622335 -11.83134079 -0.004459658172
          1.0712403059 -15.839348793 -0.18342275918 -0.075279660523 -1.1214522123 -0.03948444128
          -0.13398173451 -5.5305662155 -0.091731980443 4.8458385468 -17.578622818 0.36469945312
          0.013151487336 -14.200810432 -3.8156417759e-06 -0.11685827374 -9.5347652435 -0.040084987879
          1.8553419113 -15.590272903 0.4240590632 7.5042467117 -19.853153229 5.3397889133e-06
          9.8855571747 -20.075181961 0.23691111803 -0.12532640994 -11.856132507 -3.3318367514e-06
          -0.13632380962 -2.3783912659 -0.064336560667 -0.16156107187 -3.8243248463 -1.1873945596e-06
          -0.12016575038 -7.4364724159 -0.052312113345 3.5535364151 -17.605916977 0.17954665422
          1.0225058794 -15.833987236 -1.580329922e-06 2.449901104 -17.716669083 -0.41860446334
          -0.087527096272 -9.4202728271 0.11185456067 2.3550186157 -17.657205582 -0.18480029702
          -0.085511729121 -9.4740924835 0.056023478508 14.588171005 -20.577526093 0.61485302448
          0 0 0 0.014261305332 -14.212135315 0.22571653128
          -0.17167146504 -5.3886113167 0.14740979671 5.2086839676 -19.63381958 -0.34160450101
          -0.16619217396 -5.4362401962 0.074958540499 12.250447273 -20.284643173 0.54641664028
          -0.1038633883 -1.0945922136 -0.094781704247 5.2018690109 -19.636240005 -0.17424431443
          7.4946184158 -19.838485718 0.19945344329 -0.11641606688 -11.831339836 0.0044531119056
          -0.16652972996 -3.8095862865 -0.072203144431 1.0712417364 -15.839346886 0.18342000246
          2.2333517075 -17.587566376 6.7251562541e-07 -0.086897291243 -9.5020484924 -2.893079909e-06
          9.883685112 -20.023389816 0.47583767772 -0.15667065978 -2.3400328159 -0.12576305866
          3.5601465702 -17.637845993 0.40453523397 -0.16328276694 -5.45251894 -1.7068674651e-06
          -0.12417623401 -7.3862819672 -0.099445775151 5.1595578194 -19.626052856 4.0934778553e-06
          15.622184753 -22.953838348 -0.62413799763 0 0 0
          -0.023309880868 -14.210386276 0.49156522751 2.3550207615 -17.657203674 0.18480181694
          0 0 0 13.172235489 -22.657676697 -0.55264419317
          -0.19319778681 -14.115000725 0.024591509253 -0.085511915386 -9.4740924835 -0.056029193103
          -0.14501044154 -1.0211584568 0.13805423677 0.30227726698 -16.15495491 -0.44522455335
          15.618218422 -23.007095337 -0.31167930365 7.4822497368 -19.789400101 0.40109035373
          13.168533325 -22.711223602 -0.27646505833 -0.10334312171 -1.0477751493 0.057571433485
          -0.10227934271 -11.735304832 -0.050134282559 -0.20862683654 -14.191579819 -0.074247330427
          -0.17768955231 -3.7643301487 -0.14121578634 4.1324305534 -19.689842224 -0.38561829925
          -0.1661927104 -5.4362401962 -0.074961937964 1.0724695921 -15.839835167 0.45191624761
          -0.13761283457 -7.2092165947 0.14800618589 5.2018709183 -19.636236191 0.17425256968
          0.31722804904 -16.155029297 -0.18553137779 -0.13383078575 -7.2574973106 0.075716994703
          4.0610113144 -19.632652283 -0.16704048216 10.698623657 -22.388113022 -0.48179927468
          15.617771149 -23.024698257 1.063266518e-05 -0.21238000691 -2.2087650299 0.18456935883
          0 0 0 10.697042465 -22.444364548 -0.24040800333
          -0.18351644278 -2.2460577488 0.094327062368 13.167959213 -22.72923851 9.174886145e-06
          1.4005995989 -17.796731949 -0.39246869087 -0.12300232053 -14.064563751 -3.8548641896e-06
          0.29474192858 -16.133331299 -3.2783564166e-06 -0.038083590567 -11.607656479 0.12213437259
          -0.10087916255 -1.0533936024 -1.4826765948e-07 1.3688256741 -17.778234482 -0.19143825769
          3.9504556656 -19.568323135 2.8352528716e-06 -0.036012139171 -11.673799515 0.062469266355
          -0.13107833266 -7.2770791054 -2.19499384e-06 2.4499042034 -17.716665268 0.41860607266
          10.698018074 -22.463003159 7.6944616012e-06 -0.087527669966 -9.4202728271 -0.1118600294
          -0.17289924622 -2.2559914589 -4.6646778173e-07 8.1962337494 -22.137283325 -0.40052914619
          15.618220329 -23.00709343 0.3117005825 1.2917730808 -17.72716713 -7.8060952546e-07
          -0.24287955463 -3.5840036869 0.20623008907 -0.17167274654 -5.3886113167 -0.14741313457
          -0.03182791546 -11.680045128 -3.2044863474e-06 5.2086877823 -19.633815765 0.34161284566
          0 0 0 8.2036314011 -22.199398041 -0.20030157268
          -0.22554518282 -3.6303241253 0.10748665035 13.168535233 -22.711221695 0.27648344636
          -0.20862701535 -14.191579819 0.074239715934 0.31722965837 -16.155025482 0.18552526832
          -0.10334333032 -1.0477751493 -0.057571768761 4.0610132217 -19.632650375 0.16704627872
          -0.13383129239 -7.2574973106 -0.075721345842 10.697045326 -22.44436264 0.24042341113
          8.21180439 -22.220264435 6.2322237682e-06 2.9130330086 -19.668722153 -0.40122398734
          -0.060502562672 -9.2039518356 0.14657770097 -0.21836854517 -3.6423354149 -8.9038297801e-07
          -0.18351688981 -2.2460577488 -0.094328045845 -0.054228812456 -9.2549953461 0.076894246042
          1.3688269854 -17.778232574 0.19143678248 2.8287723064 -19.611763 -0.20185624063
          -0.036012057215 -11.673799515 -0.06247555837 5.7012572289 -21.861684799 -0.28916105628
          15.622188568 -22.953832626 0.62415933609 0 0 0