<?xml version="1.0"?>
<VTKFile type="UnstructuredGrid" version="0.1" byte_order="LittleEndian" header_type="UInt32" compressor="vtkZLibDataCompressor">
  <UnstructuredGrid>
    <Piece NumberOfPoints="6405" NumberOfCells="4800">
      <PointData>
        <DataArray type="Float32" Name="DISPLACEMENT" NumberOfComponents="3" ComponentName0="X-DISPLACEMENT" ComponentName1="Y-DISPLACEMENT" ComponentName2="Z-DISPLACEMENT" format="ascii" RangeMin="0" RangeMax="397.471162">
          0 0 0 0 0 0
          2.5810036659 -1.399235487 -1.2140258551 0 0 0
          1.5481641293 -0.73695594072 -0.84010243416 0 0 0
          2.3606925011 -1.6245458126 -0.4836910665 1.3430593014 -0.93664729595 -0.34150505066
          0 0 0 4.7595653534 -2.8533608913 -1.2867318392
          0 0 0 4.6862998009 -3.1359567642 -0.65536600351
          3.1235964298 -2.3219037056 -0.94425189495 0 0 0
          0 0 0 2.3766622543 -1.6935856342 -4.1933002848e-08
          0.86168980598 -0.45514070988 -0.49843195081 1.3364264965 -0.97506576777 -2.3082856515e-08
          3.0478355885 -2.5633966923 -0.47994321585 0.73492658138 -0.64406657219 -0.20124350488
          4.6393618584 -3.2153851986 -9.5402882039e-08 1.7433832884 -1.9526312351 -0.58771342039
          0 0 0 3.0057730675 -2.6380412579 -5.8971796335e-08
          1.672278285 -2.1782312393 -0.30043953657 0 0 0
          6.7859640121 -4.980568409 -1.2345107794 0 0 0
          0.72755134106 -0.67639124393 -3.2017299922e-09 0 0 0
          0 0 0 2.3606925011 -1.6245458126 0.4836909771
          4.6182174683 -4.4665851593 -0.92136776447 6.7946982384 -5.2174663544 -0.62385803461
          0.13792952895 -0.36504682899 -0.14623387158 1.3430593014 -0.93664735556 0.34150502086
          4.6219696999 -4.6918578148 -0.46772673726 0.048713333905 -0.55704426765 -0.069988690317
          1.6392645836 -2.2428650856 -2.0084749863e-08 4.6862998009 -3.1359567642 0.6553658247
          0 0 0 0 0 0
          0.34691718221 -1.8128858805 -0.25358107686 2.6797087193 -4.1202125549 -0.61585772038
          6.7760128975 -5.2968459129 -1.620980612e-07 3.04783535 -2.5633969307 0.47994309664
          2.6546859741 -4.3319740295 -0.31206539273 0.73492658138 -0.64406663179 0.20124350488
          4.6083064079 -4.7632718086 -1.0747190515e-07 0.27716031671 -2.027159214 -0.1344936043
          0.028615862131 -0.59168428183 2.1942874184e-08 0 0 0
          8.6872138977 -7.5946393013 -1.1245737076 0 0 0
          6.0611596107 -7.1162614822 -0.86691695452 1.672278285 -2.1782314777 0.30043950677
          8.7241687775 -7.788064003 -0.5657889843 2.5810036659 -1.3992356062 1.2140257359
          0 0 0 0 0 0
          0.25280374289 -2.0921061039 2.6084665095e-08 2.6395263672 -4.3969979286 -4.9189324614e-08
          -0.48463436961 -0.53225493431 0.1582775414 6.0899677277 -7.3048629761 -0.43607991934
          1.5481641293 -0.73695605993 0.84010237455 0.71850949526 -3.9479343891 -0.3256662786
          0 0 0 6.7946982384 -5.2174663544 0.62385767698
          -0.5434487462 -0.72358888388 0.06004120782 0.67420202494 -4.1433534622 -0.16638532281
          4.6219696999 -4.6918578148 0.46772652864 0.048713319004 -0.55704432726 0.06998872757
          3.6458604336 -6.7785873413 -0.61423444748 -0.85121536255 -1.9252895117 0.033869151026
          8.7201471329 -7.8517975807 -2.4037166213e-07 4.7595648766 -2.8533611298 1.28673172
          0 0 0 0 0 0
          3.64107728 -6.9573984146 -0.30824702978 3.1235961914 -2.3219037056 0.94425177574
          6.0919408798 -7.3661818504 -1.6913601542e-07 -0.93373095989 -2.1164424419 0.018088981509
          0.86168974638 -0.45514079928 0.49843192101 -0.59347623587 -0.77712970972 6.8860472879e-08
          0.65883952379 -4.2033028603 1.6323733476e-08 2.6546857357 -4.3319740295 0.31206530333
          0.2771602869 -2.027159214 0.13449364901 3.6365337372 -7.0142993927 -9.3492751319e-08
          1.7433831692 -1.9526314735 0.58771336079 -0.95935940742 -2.1795618534 8.8980826263e-08
          1.2195886374 -6.5899200439 -0.37750923634 8.7241687775 -7.788064003 0.56578850746
          6.7859640121 -4.980568409 1.2345104218 0 0 0
          10.44212532 -10.609856606 -1.0213110447 0 0 0
          0 0 0 -1.0065749884 -4.0018200874 -0.083759196103
          1.1889199018 -6.7514395714 -0.18927483261 10.48242569 -10.763376236 -0.5110347271
          7.4392457008 -10.162695885 -0.81433027983 6.0899677277 -7.3048629761 0.43607956171
          -0.97148287296 -0.86920267344 0.42577135563 0 0 0
          4.6182174683 -4.4665851593 0.92136752605 0.13792949915 -0.36504694819 0.14623391628
          -1.0835058689 -4.1583757401 -0.040303036571 -0.5434487462 -0.72358894348 -0.060041084886
          -1.0104119778 -1.0375677347 0.17442129552 0.67420196533 -4.1433534622 0.16638535261
          7.4713835716 -10.314798355 -0.40701153874 3.6410770416 -6.9573988914 0.30824685097
          1.1800764799 -6.8034548759 -1.2683236683e-08 10.484520912 -10.814108849 -3.3055772519e-07
          -1.7667758465 -2.2881834507 0.23653765023 -0.9337310791 -2.1164426804 -0.018088812009
          0 0 0 4.6277079582 -9.8350715637 -0.61053591967
          0.34691718221 -1.8128861189 0.25358113647 2.6797087193 -4.1202130318 0.61585760117
          -1.1042436361 -4.211514473 8.7377841851e-08 7.4781346321 -10.364034653 -2.434772739e-07
          -1.0747964382 -1.0956593752 1.0462538569e-07 -1.8982651234 -2.4287543297 0.13062365353
          4.6281685829 -9.9783935547 -0.3041112721 8.6872138977 -7.5946397781 1.1245732307
          0 0 0 -0.97206276655 -6.6019654274 -0.19345070422
          6.0611591339 -7.1162614822 0.86691659689 -1.93894732 -2.4843170643 1.3375385777e-07
          -1.0410544872 -6.7179903984 -0.09489082545 4.6279392242 -10.024235725 -1.5216059523e-07
          -0.48463439941 -0.53225505352 -0.15827745199 1.1889199018 -6.7514395714 0.1892747879
          1.8120851517 -9.6356964111 -0.42307621241 10.48242569 -10.763376236 0.51103407145
          -2.3297634125 -4.339530468 0.018938070163 0.71850943565 -3.9479346275 0.3256663084
          0 0 0 -1.0835061073 -4.1583757401 0.040303200483
          1.7871363163 -9.7602405548 -0.21057195961 -1.010412097 -1.0375678539 -0.17442111671
          -2.4744799137 -4.4089398384 0.023203160614 7.4713835716 -10.314798355 0.40701106191
          3.6458601952 -6.7785878181 0.61423426867 -0.85121548176 -1.9252897501 -0.03386901319
          12.054349899 -13.940485954 -0.93239092827 0 0 0
          -1.0576535463 -6.762816906 6.7353141731e-08 8.7488222122 -13.523740768 -0.76931971312
          12.090568542 -14.06092453 -0.46548894048 0 0 0
          -1.204608202 -1.2439469099 0.58490735292 8.7776947021 -13.643250465 -0.38339731097
          1.7815481424 -9.80123806 -5.7155336464e-08 -1.2700103521 -1.3930048943 0.24776689708
          -1.8982652426 -2.4287543297 -0.13062340021 -2.5145339966 -4.4460039139 1.3446539526e-07
          4.6281681061 -9.9783935547 0.30411097407 5.6130018234 -13.206964493 -0.60814583302
          -2.0358617306 -2.8316283226 0.2499063462 12.094021797 -14.100458145 -4.3205659495e-07
          0 0 0 -2.2511360645 -2.91315341 0.15439683199
          5.6141657829 -13.317558289 -0.30211430788 8.7848777771 -13.681614876 -3.2975682984e-07
          -1.3671079874 -1.4645960331 1.0423762831e-07 1.2195885181 -6.5899205208 0.37750917673
          -0.77373927832 -9.6268129349 -0.30016574264 10.442124367 -10.609857559 1.0213104486
          0 0 0 -2.6363475323 -6.9358687401 -0.20632478595
          -1.0410546064 -6.7179908752 0.09489095211 -1.0065751076 -4.0018205643 0.083759322762
          7.439245224 -10.162695885 0.81432980299 -0.97148293257 -0.86920279264 -0.42577120662
          -2.7747247219 -6.9388656616 -0.083766028285 -0.83486503363 -9.6977071762 -0.14730000496
          1.7871361971 -9.7602415085 0.21057184041 -2.4744801521 -4.4089398384 -0.023202899843
          5.614962101 -13.352506638 -2.2332392291e-07 -2.3001861572 -2.9634714127 1.4761504019e-07
          2.4768679142 -13.001039505 -0.4651915729 -2.4386270046 -5.0461058617 -0.15313728154
          -1.7667759657 -2.2881834507 -0.23653744161 12.090568542 -14.060925484 0.46548807621
          4.6277074814 -9.8350715637 0.61053562164 0 0 0
          -0.84754312038 -9.7321434021 3.4148911254e-08 -2.8078427315 -6.9665060043 1.2149790507e-07
          2.4559111595 -13.091013908 -0.23119325936 8.7776947021 -13.643250465 0.38339662552
          -2.7067527771 -4.9898071289 -0.041228104383 -1.2700103521 -1.3930048943 -0.24776670337
          -0.97206306458 -6.6019654274 0.19345079362 2.4522635937 -13.121251106 -1.1461943927e-07
          5.6141657829 -13.317558289 0.30211386085 -2.2511360645 -2.91315341 -0.15439653397
          -2.7658724785 -4.9874668121 1.6037688511e-07 13.537120819 -17.517671585 -0.85740971565
          0 0 0 13.56797123 -17.610427856 -0.42773905396
          1.8120849133 -9.6356973648 0.4230760932 9.9932003021 -17.128269196 -0.73135727644
          -2.3297636509 -4.339530468 -0.018937824294 -2.7025716305 -9.9919862747 -0.43540868163
          -1.8897242546 -1.6759872437 0.82439392805 -2.7747249603 -6.9388661385 0.083766266704
          -0.83486521244 -9.6977081299 0.14730006456 0 0 0
          10.017816544 -17.220043182 -0.36407166719 -2.8251514435 -9.9240818024 -0.19237947464
          -2.1113300323 -1.8497706652 0.3065379262 -0.43299522996 -12.974150658 -0.3972029686
          -2.5176944733 -7.861366272 -0.57283228636 12.054349899 -13.940486908 0.9323900342
          0 0 0 8.7488212585 -13.523740768 0.76931905746
          13.571316719 -17.640707016 -5.441780786e-07 -2.7894022465 -7.6926245689 -0.2598131299
          -0.48365199566 -13.004533768 -0.19548989832 -1.204608202 -1.2439470291 -0.58490723372
          6.5961380005 -16.822330475 -0.60657244921 -3.1450242996 -3.2570047379 0.33880248666
          0 0 0 2.4559111595 -13.091013908 0.23119302094
          -2.7067530155 -4.9898071289 0.041228439659 10.024195671 -17.249061584 -4.258525621e-07
          -2.8502709866 -9.9429149628 9.8857569242e-08 6.5974903107 -16.904571533 -0.3011546433
          -3.456631422 -3.3243572712 0.15857386589 -2.3869159222 -1.9183518887 1.2512644787e-07
          5.6130018234 -13.206965446 0.60814535618 -2.0358617306 -2.831628561 -0.24990603328
          -0.49230912328 -13.028958321 -1.2142774786e-08 -2.8494558334 -7.670832634 1.559433116e-07
          -0.77373963594 -9.6268138885 0.30016574264 6.5985212326 -16.929965973 -3.0437340115e-07
          -3.5487756729 -3.3471984863 1.8763364551e-07 -2.6363477707 -6.9358692169 0.20632502437
          13.567970276 -17.610427856 0.42773795128 3.2018630505 -16.611345291 -0.50197386742
          0 0 0 -3.798242569 -5.485042572 -0.21724379063
          3.1851034164 -16.671506882 -0.24964517355 10.017816544 -17.220043182 0.36407080293
          -2.1113302708 -1.8497707844 -0.30653768778 -2.8251516819 -9.924082756 0.19237966835
          -4.1071271896 -5.3880114555 -0.12586855888 2.4768676758 -13.001039505 0.46519130468
          -2.5608959198 -13.354854584 -0.63488173485 -0.48365223408 -13.004533768 0.19548985362
          -2.4386270046 -5.0461058617 0.15313763916 -2.7894022465 -7.6926245689 0.25981345773
          -2.4096882343 -11.170458794 -0.99564677477 -2.6575438976 -13.230899811 -0.29104140401
          3.1828615665 -16.692234039 -1.8195342477e-07 6.5974903107 -16.904571533 0.30115401745
          -3.4566316605 -3.3243572712 -0.15857346356 -2.6164193153 -10.925346375 -0.47743278742
          -4.1570267677 -5.3574838638 2.1750999224e-07 14.908025742 -21.281866074 -0.7950835228
          0 0 0 -1.6396359205 -2.2344572544 0.77216160297
          -2.6753485203 -13.244188309 6.1016343977e-08 0.036864902824 -16.566257477 -0.48052674532
          11.179795265 -20.915897369 -0.69946652651 13.537120819 -17.517671585 0.85740864277
          0 0 0 0 0 0
          -2.6528501511 -10.900822639 1.2941339378e-07 -3.8563308716 -8.4283599854 -0.86786013842
          14.9336586 -21.351947784 -0.39660832286 -0.002802829491 -16.563663483 -0.23708936572
          11.200419426 -20.984872818 -0.34804257751 9.9932003021 -17.128269196 0.73135644197
          -1.716237545 -2.3648974895 0.30200186372 -2.7025718689 -9.9919862747 0.43540886045
          -1.8897243738 -1.6759873629 -0.82439374924 -4.1552453041 -8.2086334229 -0.4495652318
          3.1851034164 -16.671506882 0.24964480102 -4.1071276665 -5.3880114555 0.12586902082
          7.5749354362 -20.619544983 -0.6047642827 -0.43299561739 -12.974150658 0.39720287919
          -2.5176944733 -7.8613667488 0.57283264399 0 0 0
          -2.4832043648 -4.2214813232 -0.29456150532 14.936676979 -21.374687195 -6.6537876364e-07
          -1.8113232851 -2.5182511806 7.9539894671e-08 -0.0079564573243 -16.579370499 -6.8345663351e-08
          7.5769748688 -20.678491592 -0.30032271147 6.5961380005 -16.822330475 0.60657185316
          11.205873489 -21.006240845 -5.3015594403e-07 -3.145024538 -3.2570049763 -0.33880203962
          -4.1988692284 -8.1652822495 2.2763613572e-07 -2.899667263 -4.0662097931 -0.076663762331
          -2.657544136 -13.230899811 0.29104155302 -2.6164195538 -10.925346375 0.47743308544
          -2.1346442699 -14.619918823 -1.3196638823 7.5782489777 -20.696107864 -3.9318214817e-07
          -2.9069752693 -4.1206746101 2.4778668717e-07 -2.2376525402 -14.381947517 -0.64309436083
          3.976514101 -20.40439415 -0.53207194805 0 0 0
          -2.5178546906 -7.3403873444 -1.5022008419 14.933657646 -21.351947784 0.39660698175
          -1.7162376642 -2.3648974895 -0.3020016849 -0.0028030790854 -16.563663483 0.23708921671
          3.964492321 -20.440467834 -0.26494589448 3.201862812 -16.611345291 0.50197350979
          11.200419426 -20.984872818 0.34804153442 -2.2238485813 -16.928436279 -0.79022741318
          -3.3184723854 -11.965350151 -1.4666327238 -3.798242569 -5.485042572 0.21724431217
          -2.7372148037 -7.0050139427 -0.65208852291 -4.1552448273 -8.2086343765 0.44956570864
          -2.2913441658 -16.772041321 -0.3704098165 -3.5096685886 -11.714589119 -0.73425143957
          -2.2440412045 -14.37343502 9.5488310592e-08 -2.5608961582 -13.354854584 0.63488191366
          7.5769748688 -20.678491592 0.30032190681 -2.4096884727 -11.170458794 0.9956471324
          3.9634926319 -20.453701019 -2.5583997854e-07 -2.899667263 -4.0662102699 0.076664343476
          -2.7414777279 -6.9849901199 3.4468314425e-07 -2.30119133 -16.781381607 8.7680422922e-09
          -3.5401144028 -11.667437553 2.0916992582e-07 -2.1944959164 -10.466088295 -1.8534121513
          0.61788713932 -20.344535828 -0.54989248514 14.908024788 -21.281866074 0.79508221149
          0 0 0 -2.2376527786 -14.381947517 0.64309459925
          -1.6396358013 -2.2344574928 -0.77216136456 -2.1482663155 -10.345409393 -0.86089158058
          0.036864481866 -16.566257477 0.48052656651 11.179795265 -20.915897369 0.69946551323
          0.5895960927 -20.316860199 -0.27171552181 16.186300278 -25.183513641 -0.74499243498
          0 0 0 -3.8563308716 -8.4283599854 0.86786073446
          16.207014084 -25.235956192 -0.37164908648 -1.0844523907 -3.0801753998 0.038948610425
          12.317400932 -24.836608887 -0.67309224606 3.964492321 -20.440467834 0.26494538784
          0 0 0 -2.7372148037 -7.0050144196 0.65208923817
          12.334396362 -24.887886047 -0.33486241102 -1.3698160648 -3.0117652416 0.036063078791
          -2.2913441658 -16.772043228 0.37040984631 -3.5096683502 -11.714589119 0.73425191641
          7.5749349594 -20.619544983 0.60476350784 -2.1218528748 -10.342590332 3.7317298052e-07
          0.58746260405 -20.326377869 -1.3100509477e-07 -2.4832041264 -4.2214818001 0.29456225038
          -1.6303648949 -18.119674683 -1.4952454567 -1.4742678404 -5.9772863388 -1.2437148094
          8.5483131409 -24.548034668 -0.60193359852 -2.3637499809 -15.532934189 -1.7160843611
          16.209810257 -25.252853394 -7.938001545e-07 0 0 0
          -1.641122818 -17.945329666 -0.72701841593 12.339037895 -24.903362274 -6.4091290142e-07
          -1.3729685545 -3.155087471 2.4543092536e-07 8.5515727997 -24.589126587 -0.29909175634
          -1.5834707022 -5.8507013321 -0.57392591238 -2.3979599476 -15.419723511 -0.85780268908
          -2.1346442699 -14.619919777 1.3196641207 -1.6274424791 -17.950159073 6.7604325693e-08
          -1.7658358812 -13.571807861 -1.7252064943 -2.1482663155 -10.345409393 0.86089229584
          -1.6882712841 -20.683744431 -0.91304707527 8.5532169342 -24.600919724 -4.8681118869e-07
          3.9765138626 -20.40439415 0.53207141161 0.58959585428 -20.316860199 0.27171525359
          -2.4087991714 -15.392497063 2.0700204573e-07 -1.5852509737 -5.8297519684 4.9242561317e-07
          -2.5178544521 -7.3403878212 1.5022016764 16.207014084 -25.235956192 0.37164747715
          4.7901854515 -24.328481674 -0.55399936438 -1.6125957966 -13.682508469 -0.85286819935
          -1.4515112638 -8.8743915558 -1.422539711 -1.7255455256 -20.51483345 -0.4297375679
          -2.2238490582 -16.928436279 0.79022747278 -3.318472147 -11.965350151 1.4666333199
          0 0 0 -1.3727067709 -8.999581337 -0.74740946293
          12.334396362 -24.887886047 0.33486112952 -1.369816184 -3.01176548 -0.036062609404
          4.7835187912 -24.346912384 -0.27623435855 -1.5662634373 -13.707072258 3.6746317278e-07
          -1.7270381451 -20.521217346 -4.404551035e-08 -1.6411226988 -17.945329666 0.72701865435
          4.7836551666 -24.354890823 -3.3366188745e-07 -1.3840175867 -8.9230623245 5.2451213151e-07
          8.5515727997 -24.589126587 0.29909077287 -1.5834708214 -5.8507013321 0.57392686605
          -2.3979594707 -15.419723511 0.85780316591 -2.1944959164 -10.466088295 1.8534128666
          0.61788666248 -20.344535828 0.54989218712 1.2879005671 -24.253791809 -0.60159504414
          16.186300278 -25.183513641 0.74499088526 0 0 0
          -1.2895311117 -11.742227554 -1.2368272543 -1.0844523907 -3.0801756382 -0.038948152214
          12.317399979 -24.836610794 0.67309099436 -1.6125957966 -13.682508469 0.8528689146
          -1.7255456448 -20.51483345 0.4297375381 1.2723253965 -24.21023941 -0.29746109247
          -1.2626487017 -19.011476517 -1.6351093054 -1.1852345467 -12.072263718 -0.66928702593
          -1.3727070093 -8.9995822906 0.74741047621 4.7835183144 -24.346912384 0.2762336731
          -1.1759383678 -19.069232941 -0.82108461857 -0.88271892071 -21.739509583 -1.5162323713
          -1.2789386511 -16.63833046 -1.450704217 17.391885757 -29.183965683 -0.7070068717
          0 0 0 13.415019989 -28.851650238 -0.65185469389
          -1.6303647757 -18.11967659 1.4952458143 -1.4742680788 -5.9772868156 1.2437156439
          8.5483131409 -24.548034668 0.60193258524 -1.1239974499 -16.863494873 -0.7462054491
          -0.82852447033 -21.642686844 -0.73087781668 -2.3637497425 -15.532935143 1.7160849571
          17.407945633 -29.223949432 -0.35270494223 0 0 0
          -1.1872347593 -12.050167084 4.9513801059e-07 1.2726521492 -24.216144562 -1.9125423023e-07
          0.080084092915 -3.6634242535 -0.046227239072 13.428684235 -28.890455246 -0.32429215312
          0.082470610738 -3.689234972 -0.02035134472 -1.1655989885 -19.066867828 2.1954902252e-07
          9.5151386261 -28.568891525 -0.59744900465 -1.0885703564 -16.891017914 3.6437049289e-07
          -0.81522750854 -21.640378952 7.1402524782e-08 17.41062355 -29.236713409 -9.2613902325e-07
          0 0 0 0.12297030538 -6.7345533371 -0.022198025137
          9.5199651718 -28.597770691 -0.29706078768 13.432598114 -28.901824951 -7.5379733744e-07
          -1.7658360004 -13.571808815 1.7252072096 -1.6882714033 -20.683746338 0.91304719448
          0.083145730197 -3.7182033062 3.1597556926e-07 0.1268440932 -7.0998883247 -0.012112223543
          4.7901849747 -24.328481674 0.55399870872 -1.4515116215 -8.8743925095 1.4225406647
          -1.1097003222 -14.589550018 -1.0032410622 -0.9736828208 -24.561426163 -0.98909717798
          -1.1852347851 -12.072263718 0.6692879796 1.2723251581 -24.21023941 0.29746070504
          -1.0088536739 -14.999513626 -0.53962868452 -0.97760796547 -24.403940201 -0.46515163779
          -1.1759381294 -19.069232941 0.8210850358 9.5220212936 -28.605716705 -5.818329214e-07
          0.12711319327 -7.0333342552 4.9821323955e-07 5.6329054832 -28.344446182 -0.56644493341
          -1.1239974499 -16.86349678 0.74620616436 -0.82852423191 -21.642686844 0.73087799549
          17.407945633 -29.223949432 0.35270309448 0 0 0
          0.14075483382 -9.5596284866 -0.014270145446 5.6316995621 -28.352010727 -0.282800138
          13.428683281 -28.890455246 0.3242906332 0.1419044137 -10.101436615 -0.0076022450812
          -1.0044094324 -15.03844738 4.7733908559e-07 -0.97390365601 -24.410007477 -6.7274292803e-08
          0.082470498979 -3.689234972 0.02035192214 9.5199651718 -28.597770691 0.29705962539
          5.6327662468 -28.356847763 -4.1135368178e-07 0.14180447161 -10.082064629 5.2314157983e-07
          1.2879000902 -24.253793716 0.6015946269 -0.22143194079 -22.499107361 -1.3646959066
          0.12684391439 -7.0998888016 0.012113190256 -1.2895314693 -11.742227554 1.236828208
          -0.76755177975 -19.764677048 -1.1579301357 -0.075154908001 -22.657356262 -0.69432419538
          -1.262648344 -19.011478424 1.635109663 -0.62121844292 -20.03726387 -0.6049978137
          -1.0088537931 -14.999513626 0.5396296382 -0.97760790586 -24.403940201 0.46515154839
          -0.88271862268 -21.739509583 1.5162326097 -1.2789388895 -16.63833046 1.450704813
          0.1509091109 -12.309102058 -0.01197617501 2.0309197903 -28.247411728 -0.63087701797
          17.391885757 -29.183965683 0.70700502396 0 0 0
          13.415019989 -28.851652145 0.65185314417 0.15068398416 -12.887449265 -0.0061998823658
          -0.049863569438 -22.67001915 2.3890819989e-07 -0.92497885227 -17.411560059 -0.79898458719
          0.0049931895919 -25.419887543 -1.3781048059 2.0278627872 -28.198825836 -0.31178611517
          0.080084085464 -3.6634244919 0.04622765258 -0.5938449502 -20.080257416 3.5987022784e-07
          5.6316990852 -28.352010727 0.28279933333 0.14190421999 -10.101436615 0.0076032811776
          0.10091610253 -25.413103104 -0.66831737757 -0.8318195343 -17.814220428 -0.42188033462
          9.5151386261 -28.568891525 0.59744787216 0.15029747784 -12.928116798 5.1868727269e-07
          2.0300657749 -28.202957153 -2.5159948791e-07 0.12297008932 -6.7345538139 0.022198874503
          0.1119177267 -25.41440773 7.218718423e-08 18.544898987 -33.256504059 -0.68074661493
          0 0 0 -0.82609158754 -17.884630203 4.6386944064e-07
          18.556577682 -33.28911972 -0.33951035142 0 0 0
          -0.075154706836 -22.65735817 0.69432461262 14.481327057 -32.934345245 -0.63531458378
          -1.1097005606 -14.589550018 1.0032418966 -0.9736828208 -24.56142807 0.98909717798
          1.1989438534 -3.084713459 -0.12270995229 -0.62121850252 -20.03726387 0.60499852896
          14.491857529 -32.965789795 -0.31607794762 1.4807072878 -3.0314536095 -0.068936914206
          5.6329054832 -28.34444809 0.56644409895 18.559108734 -33.299377441 -1.0585429209e-06
          0.15068379045 -12.887449265 0.0062009179965 10.473926544 -32.655658722 -0.5907215476
          1.6874507666 -5.9753651619 1.1869062185 2.0278625488 -28.198825836 0.31178560853
          0 0 0 -0.12117682397 -28.471633911 -0.98871511221
          0.15880711377 -15.042788506 -0.012073674239 0.1407545656 -9.5596284866 0.014271133579
          1.8079376221 -5.8508915901 0.54512137175 10.480230331 -32.677810669 -0.29387095571
          14.495044708 -32.974727631 -8.6677738409e-07 0.10091625154 -25.413103104 0.66831749678
          0.15794597566 -15.583017349 -0.0060413461179 -0.095760241151 -28.346429825 -0.4674552083
          -0.83181971312 -17.814220428 0.42188122869 1.489364028 -3.1752824783 1.010009214e-07
          -0.26844400167 -22.983757019 -0.87954556942 10.482477188 -32.68378067 -6.7659715342e-07
          -0.22143168747 -22.499109268 1.3646962643 1.8100363016 -5.8326201439 2.5049217811e-07
          0.15745905042 -15.661888123 5.1282336244e-07 -0.13501018286 -23.25122261 -0.46131101251
          -0.090500034392 -28.351207733 -9.4538812334e-08 -0.76755189896 -19.764677048 1.157930851
          18.556577682 -33.289123535 0.33950823545 6.4931554794 -32.426681519 -0.56913542747
          -0.72147810459 -20.31861496 -0.61425542831 0 0 0
          1.708006978 -8.8763046265 1.3893710375 0.62994033098 -25.970766068 -1.0535848141
          1.6333391666 -9.0024318695 0.72773659229 6.4968938828 -32.4296875 -0.28421092033
          14.491857529 -32.965789795 0.31607621908 -0.63850712776 -20.676074982 -0.31858313084
          0.78537374735 -26.165147781 -0.54461121559 1.4807072878 -3.0314536095 0.068937107921
          0.15090881288 -12.309102058 0.011977180839 2.0309193134 -28.247411728 0.63087648153
          -0.11185055226 -23.306217194 3.4354900436e-07 -0.9249791503 -17.411560059 0.79898548126
          0.004993358627 -25.41988945 1.3781049252 6.4985671043 -32.433391571 -4.8788962204e-07
          10.480230331 -32.677810669 0.2938695848 -0.63476872444 -20.758144379 4.4513802777e-07
          1.8079376221 -5.8508915901 -0.54512089491 1.6448125839 -8.930513382 3.5589422964e-07
          0.15794576705 -15.583017349 0.0060423682444 -0.095760166645 -28.346431732 0.46745502949
          0.82374310493 -26.195194244 2.0292635838e-07 0.88968342543 -29.045578003 -1.1619923115
          0.16542798281 -17.783411026 -0.013248979114 0.99197256565 -29.093881607 -0.57106655836
          0.16439701617 -18.257753372 -0.0065187392756 18.544898987 -33.256507874 0.68074452877
          0 0 0 -0.13501022756 -23.25122261 0.46131166816
          1.5714763403 -11.749511719 1.2108300924 2.8362329006 -32.309375763 -0.64020365477
          1.4673764706 -12.079086304 0.65485066175 14.481327057 -32.934345245 0.63531285524
          1.1989439726 -3.084713459 0.12271018326 2.8426952362 -32.263095856 -0.31533369422
          6.4968934059 -32.4296875 0.28420993686 -0.63850730658 -20.676076889 0.31858402491
          1.6333391666 -9.0024318695 -0.72773593664 0.78537380695 -26.165147781 0.54461157322
          1.0002112389 -29.094882965 4.4376260888e-08 0.1639418453 -18.356199265 4.9990353546e-07
          10.473926544 -32.655658722 0.5907202363 1.6874508858 -5.9753651619 -1.1869057417
          -0.12117678672 -28.471633911 0.988714993 1.4685014486 -12.059127808 4.1885601831e-07
          0.15880680084 -15.042788506 0.01207466796 2.8452703953 -32.266178131 -3.0633785286e-07
          19.664936066 -37.387481689 -0.66505682468 0 0 0
          -0.26844412088 -22.983757019 0.87954616547 0.99197274446 -29.093881607 0.57106661797
          0 0 0 15.524722099 -37.07075882 -0.62317603827
          -0.50738853216 -23.345933914 -0.45607471466 0.16439679265 -18.257753372 0.0065197348595
          1.6914795637 -2.2518334389 -0.80848163366 0.19498345256 -26.273654938 -0.64879828691
          19.672527313 -37.417129517 -0.33150663972 6.4931550026 -32.426681519 0.5691344738
          15.532104492 -37.099311829 -0.31006535888 1.758566618 -2.3905234337 -0.3156068325
          -0.72147840261 -20.31861496 0.61425626278 -0.43656152487 -23.643095016 -0.23276351392
          1.708006978 -8.8763036728 -1.3893704414 0.82704651356 -32.434635162 -0.92773097754
          1.4673763514 -12.079087257 -0.65484982729 0.62994045019 -25.970766068 1.0535851717
          1.4091151953 -14.602845192 0.97858518362 2.8426949978 -32.263095856 0.31533306837
          0.30589050055 -26.509027481 -0.3385296464 1.3071962595 -15.011637688 0.52665680647
          0.87067449093 -32.348953247 -0.44293138385 11.422355652 -36.794284821 -0.58145403862
          19.674732208 -37.426277161 -1.1890883798e-06 2.6024017334 -4.2260065079 0.23396237195
          0 0 0 11.429101944 -36.81452179 -0.28955841064
          3.015516758 -4.0813817978 0.050048649311 15.534501076 -37.107200623 -9.7758345419e-07
          1.3015139103 -29.417118073 -0.80991393328 -0.4331227839 -23.725152969 4.1575844989e-07
          0.32610529661 -26.568904877 3.0466469525e-07 0.17124542594 -20.590129852 -0.014621099457
          1.8581218719 -2.545416832 2.4892235495e-10 1.4354112148 -29.602710724 -0.41925162077
          0.876958251 -32.351272583 -1.1274885736e-07 0.1702246666 -20.981798172 -0.0071650319733
          1.3020159006 -15.050995827 4.4971767466e-07 0.88968360424 -29.045578003 1.1619924307
          11.431162834 -36.819988251 -7.6806247762e-07 0.16542764008 -17.783411026 0.013249945827
          3.0206668377 -4.1339464188 5.9410698583e-08 7.3594264984 -36.561489105 -0.56206637621
          19.672527313 -37.417129517 0.33150425553 1.4752510786 -29.635225296 1.6845628181e-07
          2.7088599205 -7.338496685 1.4512053728 1.5714762211 -11.749511719 -1.2108293772
          0.16978539526 -21.080307007 4.8027521871e-07 2.8362326622 -32.309375763 0.64020305872
          0 0 0 7.3661761284 -36.565544128 -0.28094723821
          2.9289164543 -7.0153040886 0.62907701731 15.532104492 -37.099315643 0.31006339192
          -0.43656167388 -23.643095016 0.23276433349 0.30589047074 -26.509027481 0.33853024244
          1.7585664988 -2.3905234337 0.3156068325 0.87067455053 -32.348957062 0.44293114543
          1.3071961403 -15.011637688 -0.5266559124 11.429101944 -36.81452179 0.28955686092
          7.3678212166 -36.569786072 -5.5911192476e-07 1.7423483133 -32.746768951 -0.95205682516
          1.2375825644 -17.430786133 0.7729267478 2.9270679951 -7.0042948723 1.7483046122e-07
          3.015516758 -4.0813817978 -0.050048526376 1.142927289 -17.832630157 0.40849518776
          1.435411334 -29.602710724 0.4192519486 1.8337030411 -32.824596405 -0.47300702333
          0.17022444308 -20.981798172 0.0071659856476 3.6798052788 -36.420246124 -0.63023489714
          19.664936066 -37.387481689 0.6650544405 0 0 0
          2.4240355492 -10.477972984 1.8169903755 3.6934804916 -36.383586884 -0.3103505671
          15.524722099 -37.07075882 0.62317413092 2.379799366 -10.359837532 0.84283709526