<?xml version="1.0"?>
<VTKFile type="UnstructuredGrid" version="0.1" byte_order="LittleEndian" header_type="UInt32" compressor="vtkZLibDataCompressor">
  <UnstructuredGrid>
    <Piece NumberOfPoints="6405" NumberOfCells="4800">
      <PointData>
        <DataArray type="Float32" Name="DISPLACEMENT" NumberOfComponents="3" ComponentName0="X-DISPLACEMENT" ComponentName1="Y-DISPLACEMENT" ComponentName2="Z-DISPLACEMENT" format="ascii" RangeMin="0" RangeMax="257.34937025">
          0 0 0 0 0 0
          2.0962994099 -1.2958312035 -0.96805787086 0 0 0
          1.3386067152 -0.7744114995 -0.74456852674 0 0 0
          1.9167311192 -1.4310122728 -0.38450145721 1.1653994322 -0.8852519393 -0.3034221828
          0 0 0 3.7543833256 -2.3910739422 -0.98768979311
          0 0 0 3.7040631771 -2.5495495796 -0.5097501874
          2.686974287 -1.9734188318 -0.81807482243 0 0 0
          0 0 0 1.9241126776 -1.4763683081 8.5922607695e-07
          0.96824324131 -0.53896224499 -0.56689530611 1.1610503197 -0.9070699811 3.6773676015e-07
          2.6329255104 -2.1000423431 -0.41783025861 0.8343590498 -0.63803815842 -0.23041824996
          3.6631832123 -2.5940709114 1.8498691361e-06 1.9295161963 -1.6272381544 -0.63644844294
          0 0 0 2.5978813171 -2.1417348385 9.3736070994e-07
          1.8729383945 -1.7458328009 -0.32659542561 0 0 0
          5.2540793419 -3.7979328632 -0.92045241594 0 0 0
          0.82965976 -0.6565977931 -1.835841914e-07 0 0 0
          0 0 0 1.9167309999 -1.4310114384 0.38450312614
          3.950466156 -3.3966326714 -0.77637815475 5.2733192444 -3.9125535488 -0.4693890512
          0.65638452768 -0.36651977897 -0.39679148793 1.1653996706 -0.88525098562 0.30342292786
          3.9664132595 -3.5053303242 -0.39588275552 0.55936014652 -0.47163701057 -0.16787691414
          1.8415760994 -1.7792361975 -7.0325654633e-08 3.7040631771 -2.5495476723 0.50975394249
          0 0 0 0 0 0
          1.3186619282 -1.4082058668 -0.44347989559 2.9230828285 -3.0712976456 -0.63105857372
          5.2606096268 -3.9540245533 3.0459741538e-06 2.6329259872 -2.1000404358 0.41783216596
          2.9160878658 -3.1765158176 -0.32102245092 0.83435934782 -0.63803708553 0.23041795194
          3.9579396248 -3.541446209 1.7106920041e-06 1.2657828331 -1.5270969868 -0.22660546005
          0.55172628164 -0.48761206865 -9.5989082638e-07 0 0 0
          6.6344966888 -5.3955955505 -0.8166270256 0 0 0
          5.1412472725 -5.0337576866 -0.71264994144 1.872939229 -1.7458306551 0.3265953064
          6.6751031876 -5.4770469666 -0.41351139545 2.0962998867 -1.2958296537 0.9680595994
          0 0 0 0 0 0
          1.2402219772 -1.5574798584 -1.2575085293e-06 2.9056460857 -3.2079088688 2.9229994425e-07
          0.32350686193 -0.34125298262 -0.19443520904 5.1766877174 -5.1146893501 -0.35948973894
          1.3386076689 -0.77440953255 0.74456942081 1.9935523272 -2.8361101151 -0.47089296579
          0 0 0 5.2733197212 -3.9125509262 0.46939522028
          0.30302280188 -0.47713434696 -0.097536638379 1.9596780539 -2.937636137 -0.24176651239
          3.9664142132 -3.5053277016 0.39588621259 0.55936104059 -0.47163581848 0.1678751111
          3.8856701851 -4.7458472252 -0.60931825638 0.48812949657 -1.2929799557 -0.2177336961
          6.6762599945 -5.5057430267 4.4031262405e-06 3.7543845177 -2.3910706043 0.98769366741
          0 0 0 0 0 0
          3.8976905346 -4.8247823715 -0.30641525984 2.6869761944 -1.9734150171 0.81807684898
          5.1822981834 -5.1428790092 2.6882014481e-06 0.43960392475 -1.4221601486 -0.12545506656
          0.96824365854 -0.53895998001 0.5668951869 0.30569791794 -0.51449632645 -2.1958680918e-06
          1.9470866919 -2.9653332233 -1.2553557553e-06 2.9160890579 -3.1765129566 0.32102307677
          1.2657837868 -1.5270946026 0.22660295665 3.8988282681 -4.8509674072 9.0824909194e-07
          1.9295176268 -1.6272338629 0.63644844294 0.42580100894 -1.4525067806 -2.6070151762e-06
          2.7202420235 -4.5587110519 -0.50834304094 6.6751041412 -5.4770436287 0.41352027655
          5.2540812492 -3.797927618 0.92045873404 0 0 0
          7.8836250305 -7.1301813126 -0.72842490673 0 0 0
          0 0 0 0.80880975723 -2.682028532 -0.32993447781
          2.7060260773 -4.6263208389 -0.25721034408 7.9232702255 -7.1865849495 -0.36644044518
          6.246424675 -6.8011674881 -0.65562671423 5.1766891479 -5.1146855354 0.35949519277
          0.0071711540222 -0.52938604355 -0.16217637062 0 0 0
          3.9504685402 -3.3966269493 0.77638179064 0.65638536215 -0.36651709676 0.3967898488
          0.75815039873 -2.778331995 -0.17167271674 0.30302393436 -0.47713291645 0.097532384098
          -0.086729630828 -0.59297060966 -0.059378799051 1.9596793652 -2.937633276 0.2417640686
          6.2820720673 -6.8599224091 -0.3283585608 3.8976919651 -4.8247785568 0.30641710758
          2.7029242516 -4.6514687538 -9.916077488e-07 7.9298229218 -7.2070307732 5.9092340052e-06
          0.14737665653 -1.5774751902 -0.32974201441 0.43960520625 -1.4221576452 0.12544986606
          0 0 0 4.8057112694 -6.5379314423 -0.5826099515
          1.3186632395 -1.4082010984 0.4434774518 2.9230849743 -3.0712916851 0.63105934858
          0.75210732222 -2.8072516918 -2.8880724585e-06 6.2913370132 -6.880759716 3.8523680814e-06
          -0.083019696176 -0.6400039196 -4.4054772843e-06 0.078048102558 -1.5902941227 -0.12421910465
          4.8252944946 -6.5958499908 -0.29209253192 6.634499073 -5.395588398 0.81663608551
          0 0 0 1.4353044033 -4.4077992439 -0.46394613385
          5.1412506104 -5.0337505341 0.71265554428 0.091843813658 -1.6441195011 -5.1844067457e-06
          1.4018616676 -4.4559063911 -0.21659971774 4.8304648399 -6.6168241501 1.7474250171e-06
          0.3235078454 -0.34124952555 0.19443108141 2.7060277462 -4.6263170242 0.25720843673
          3.4560041428 -6.3499336243 -0.51688694954 7.923271656 -7.1865811348 0.36645233631
          0.39633977413 -2.9027774334 -0.43328738213 1.9935542345 -2.8361039162 0.47089067101
          0 0 0 0.75815224648 -2.7783288956 0.17166702449
          3.4627177715 -6.4056358337 -0.25946098566 -0.086727909744 -0.59296894073 0.059370182455
          0.38860955834 -2.9067730904 -0.1755233407 6.2820739746 -6.8599181175 0.32836633921
          3.8856730461 -4.7458400726 0.60932028294 0.4881311059 -1.2929747105 0.217728585
          9.0183954239 -8.9449043274 -0.66331702471 0 0 0
          1.3861569166 -4.4759550095 -3.0345420328e-06 7.2751545906 -8.6409378052 -0.6090605855
          9.0500497818 -8.9868993759 -0.33285287023 0 0 0
          0.07081001997 -0.75576627254 -0.11376253515 7.3046541214 -8.6861858368 -0.30410698056
          3.4634950161 -6.4274559021 -4.5658907766e-07 0.035843204707 -0.79846709967 -0.040911853313
          0.078050278127 -1.5902915001 0.12420907617 0.38466188312 -2.9427332878 -5.6046628742e-06
          4.825296402 -6.5958456993 0.2920960784 5.6862225533 -8.3910398483 -0.55131959915
          0.019738446921 -1.7515927553 -0.14156131446 9.0575485229 -9.0022354126 7.5507132351e-06
          0 0 0 -0.01638074033 -1.8076119423 -0.10913968831
          5.7075233459 -8.4375543594 -0.27593538165 7.3133215904 -8.7023420334 5.179807431e-06
          0.02716493234 -0.81224030256 -3.1591259813e-06 2.7202444077 -4.5587034225 0.5083412528
          2.2206759453 -6.1939997673 -0.45527169108 7.8836283684 -7.1301732063 0.72843694687
          0 0 0 0.72963535786 -4.436205864 -0.37467744946
          1.401864171 -4.4559025764 0.21659371257 0.80881232023 -2.6820220947 0.32992905378
          6.2464284897 -6.801158905 0.65563458204 0.0071727912873 -0.52938133478 0.16216778755
          0.76126295328 -4.5028986931 -0.1806974858 2.2081551552 -6.2545657158 -0.22216324508
          3.4627194405 -6.4056315422 0.25946009159 0.38861221075 -2.9067699909 0.17551240325
          5.7135577202 -8.4540672302 2.7689757189e-06 -0.0081865834072 -1.8178824186 -5.8198565966e-06
          4.2173714638 -8.1944561005 -0.49239838123 -0.16112647951 -3.1258985996 -0.35743141174
          0.14737899601 -1.5774689913 0.32973223925 9.0500507355 -8.9868946075 0.33286800981
          4.8057146072 -6.5379228592 0.58261364698 0 0 0
          2.186964035 -6.2691450119 -2.8319254852e-06 0.74925041199 -4.5185718536 -5.6779840634e-06
          4.2291693687 -8.2431373596 -0.2467225492 7.3046565056 -8.6861810684 0.30411738157
          -0.14137299359 -3.1694803238 -0.1499235332 0.035843584687 -0.79846554995 0.040905814618
          1.4353079796 -4.4077916145 0.4639403224 4.230152607 -8.2595338821 2.7831333682e-07
          5.7075252533 -8.4375495911 0.27594095469 -0.016379540786 -1.8076095581 0.10912801325
          -0.08227558434 -3.1547420025 -9.0058811111e-06 10.070606232 -10.809763908 -0.62168473005
          0 0 0 10.093007088 -10.846309662 -0.31135931611
          3.4560074806 -6.3499245644 0.51688611507 8.2404146194 -10.524184227 -0.57390934229
          0.39634287357 -2.9027700424 0.43327647448 1.0236289501 -6.1102304459 -0.27624684572
          0.020855849609 -0.87513810396 -0.049725424498 0.76126545668 -4.5028948784 0.18068611622
          2.2081577778 -6.2545609474 0.22215752304 0 0 0
          8.2620544434 -10.56360817 -0.28602564335 1.0298445225 -6.201526165 -0.16630576551
          -0.0017783893272 -0.91119247675 -0.022112010047 2.8554697037 -8.0327672958 -0.41544920206
          0.082082301378 -4.7035207748 -0.34655100107 9.0183992386 -8.9448947906 0.6633323431
          0 0 0 7.2751588821 -8.6409282684 0.60907113552
          10.09996891 -10.859480858 9.3244307209e-06 0.053737271577 -4.7398982048 -0.13796336949
          2.8543279171 -8.0859222412 -0.2138350904 0.070808172226 -0.75576412678 0.11375702918
          6.5235133171 -10.293989182 -0.52169430256 -0.017363956198 -1.9546413422 -0.094270043075
          0 0 0 4.2291712761 -8.2431325912 0.24672310054
          -0.14136958122 -3.1694777012 0.14990659058 8.2687110901 -10.577132225 6.6590673669e-06
          1.0382845402 -6.2147598267 -5.4133765843e-06 6.5420951843 -10.334142685 -0.25932177901
          -0.036235343665 -2.0060715675 -0.044277142733 -0.0024072232191 -0.92021161318 -2.7010214581e-06
          5.6862268448 -8.3910293579 0.5513253212 0.019737463444 -1.7515894175 0.14155131578
          2.8543448448 -8.0991373062 -2.3188977138e-06 0.086177743971 -4.7617297173 -9.0030289357e-06
          2.2206802368 -6.1939902306 0.45526579022 6.5466856956 -10.347561836 3.9516553443e-06
          -0.03837063536 -2.0200307369 -5.5670302572e-06 0.72963893414 -4.436196804 0.37466576695
          10.093008995 -10.846304893 0.31137803197 4.9278082848 -10.140873909 -0.47048833966
          0 0 0 -0.018686307594 -3.2325496674 -0.095876514912
          4.9407782555 -10.176662445 -0.23256547749 8.2620573044 -10.563602448 0.28603902459
          -0.0017784243682 -0.91119158268 0.022106904536 1.029846549 -6.2015213966 0.16629478335
          -0.037928126752 -3.3113286495 -0.067291602492 4.2173757553 -8.19444561 0.49239897728
          1.3092465401 -7.8916373253 -0.32686400414 2.8543298244 -8.0859165192 0.21383041143
          -0.16112394631 -3.1258897781 0.35741406679 0.053739495575 -4.7398939133 0.13794545829
          0.34919950366 -6.4176468849 -0.40413591266 1.3016566038 -7.9507665634 -0.17170481384
          4.9426431656 -10.187578201 1.184646635e-06 6.5420975685 -10.334136963 0.25932970643
          -0.036235451698 -2.0060698986 0.044266264886 0.29522636533 -6.3945221901 -0.16123379767
          -0.04760697484 -3.3158540726 -7.8468510765e-06 11.075775146 -12.717764854 -0.60037839413
          0 0 0 -0.017978779972 -0.94164419174 -0.0051704724319
          1.3230367899 -7.9701933861 -5.1224501476e-06 3.4394028187 -10.072361946 -0.42491480708
          9.1585035324 -12.441096306 -0.54979157448 10.070611954 -10.809753418 0.62170356512
          0 0 0 0 0 0
          0.34479883313 -6.4460635185 -8.9635141194e-06 -0.0098916441202 -4.7126264572 -0.12000591308
          11.089424133 -12.755781174 -0.30018493533 3.4418053627 -10.091517448 -0.2105730623
          9.1730804443 -12.481137276 -0.27328050137 8.2404203415 -10.524173737 0.57392287254
          -0.022370835766 -0.97240930796 -0.0013404755155 1.023632288 -6.1102204323 0.27623558044
          0.020853437483 -0.87513715029 0.049720361829 -0.020481271669 -4.7969150543 -0.073637887836
          4.9407806396 -10.176656723 0.23256787658 -0.037928272039 -3.3113265038 0.067275613546
          7.3067526817 -12.228406906 -0.49392747879 2.85547328 -8.0327558517 0.41544440389
          0.082085378468 -4.7035107613 0.34653303027 0 0 0
          -0.049788516015 -2.0373790264 -0.010489540175 11.095125198 -12.768996239 1.1243607332e-05
          -0.02355254814 -0.9807652235 -2.2343126602e-06 3.4472792149 -10.099740982 -1.7055173203e-06
          7.3205494881 -12.265094757 -0.24425043166 6.5235180855 -10.293977737 0.52170240879
          9.1780490875 -12.494054794 8.2890001067e-06 -0.017366500571 -1.9546391964 0.094259686768
          -0.033747885376 -4.8071155548 -9.6542999017e-06 -0.056571889669 -2.0854678154 -0.0056886076927
          1.3016586304 -7.9507608414 0.17169459164 0.29522868991 -6.3945169449 0.1612161696
          0.6553966403 -8.1852579117 -0.51887196302 7.3218283653 -12.273933411 5.2898249123e-06
          -0.059098560363 -2.0998325348 -4.7831276788e-06 0.66163676977 -8.1399688721 -0.19594864547
          5.5647902489 -12.1121521 -0.4401806891 0 0 0
          -0.086143627763 -3.311706543 -0.016194975004 11.089426994 -12.755774498 0.30020746589
          -0.022371195257 -0.97240895033 0.0013361448655 3.4418075085 -10.091511726 0.21056972444
          5.574215889 -12.141108513 -0.21373866498 4.9278130531 -10.140863419 0.47049084306
          9.1730833054 -12.481131554 0.27329713106 1.9261236191 -10.013221741 -0.45363792777
          0.046051714569 -6.367413044 -0.12002468109 -0.018688330427 -3.2325463295 0.095861949027
          -0.091890431941 -3.3718311787 -0.0047989506274 -0.020480850711 -4.7969121933 0.073618747294
          1.8933215141 -10.002661705 -0.2030800581 0.0044636582024 -6.4587359428 -0.11758670211
          0.67232203484 -8.1771478653 -8.7334628915e-06 1.3092499971 -7.891626358 0.32685393095
          7.3205523491 -12.265088081 0.24426105618 0.34920290112 -6.4176363945 0.4041184485
          5.5682840347 -12.149723053 2.2608253403e-06 -0.05657273531 -2.0854671001 0.0056791030802
          -0.095076732337 -3.3933913708 -7.2592088145e-06 1.866994381 -9.994348526 -4.6694999583e-06
          0.015251447447 -6.4665250778 -1.0799251868e-05 -0.11107967794 -4.7740163803 -0.013546854258
          3.9670433998 -12.08587265 -0.4187553823 11.075780869 -12.71775341 0.6004011035
          0 0 0 0.66163945198 -8.1399641037 0.19593149424
          -0.01798142679 -0.94164401293 0.0051658996381 -0.12310418487 -4.8466076851 -0.0074328109622
          3.4394066334 -10.072349548 0.42491164804 9.1585092545 -12.441084862 0.54980832338
          3.9744949341 -12.102872849 -0.20363764465 12.065295219 -14.682415962 -0.59500974417
          0 0 0 -0.0098927095532 -4.7126216888 0.1199882254
          12.071836472 -14.726172447 -0.29682299495 -0.055473171175 -0.9624132514 0.03742627427
          10.052721977 -14.404642105 -0.53492212296 5.57421875 -12.141102791 0.21374323964
          0 0 0 -0.091891385615 -3.3718299866 0.0047847689129
          10.060516357 -14.449713707 -0.2661921382 -0.046133473516 -0.99019134045 0.015838919207
          1.8933244944 -10.002655983 0.20307077467 0.0044646947645 -6.4587321281 0.11756521463
          7.3067584038 -12.228394508 0.49393826723 -0.12637633085 -4.8704748154 -9.2905629572e-06
          3.9685461521 -12.113639832 -7.7527226949e-07 -0.049792185426 -2.0373785496 0.010480406694
          0.99786871672 -10.141029358 -0.41849640012 -0.1060327962 -2.066889286 0.046298731118
          8.0519971848 -14.18205452 -0.47112891078 -0.098465137184 -8.4971313477 -0.50970357656
          12.076061249 -14.740663528 1.3336833945e-05 0 0 0
          1.0485595465 -10.155520439 -0.218451038 10.063597679 -14.463922501 1.0073576959e-05
          -0.045975122601 -0.99772077799 -1.7864248321e-06 8.064822197 -14.222598076 -0.23123130202
          -0.10037424415 -2.107270956 0.02497125417 -0.04578583315 -8.4804401398 -0.24106457829
          0.65540063381 -8.1852455139 0.5188549757 1.0590020418 -10.144776344 -7.8328475865e-06
          -0.15960736573 -6.4694533348 -0.044792924076 -0.12310495973 -4.8466062546 0.0074146036059
          2.5920755863 -12.073130608 -0.42256987095 8.0688180923 -14.230839729 6.7612045314e-06
          5.5647954941 -12.112139702 0.44018542767 3.9744975567 -12.102866173 0.20363612473
          -0.024968380108 -8.450797081 -1.2359225366e-05 -0.09879142791 -2.1210899353 -3.9982937778e-06
          -0.086147211492 -3.3117058277 0.01618145965 12.071839333 -14.726165771 0.29684972763
          6.1429162025 -14.072749138 -0.40156295896 -0.16840575635 -6.5467071533 -0.020665973425
          -0.15330153704 -3.339097023 0.053449463099 2.5953738689 -12.086080551 -0.2057992667
          1.9261286259 -10.013210297 0.45362883806 0.046051777899 -6.3674073219 0.12000527978
          0 0 0 -0.15090799332 -3.3883574009 0.028475074098
          10.060519218 -14.449707985 0.26621234417 -0.046133995056 -0.99019134045 -0.015842435881
          6.1267943382 -14.092992783 -0.19988171756 -0.17245651782 -6.5700979233 -1.0999945516e-05
          2.5808665752 -12.091067314 -3.8750326894e-06 1.048561573 -10.155514717 0.21843522787
          6.094394207 -14.087031364 3.4711540593e-06 -0.15081872046 -3.4055526257 -6.251485047e-06
          8.0648260117 -14.2225914 0.23124489188 -0.10037536174 -2.107270956 -0.024979226291
          -0.0457835868 -8.4804344177 0.24104002118 -0.11108264327 -4.7740149498 0.013529710472
          3.9670481682 -12.085860252 0.41875392199 4.4611644745 -14.052102089 -0.36937862635
          12.065301895 -14.682402611 0.59503656626 0 0 0
          -0.20106068254 -4.80316782 0.058290496469 -0.055475786328 -0.96241366863 -0.037430174649
          10.052728653 -14.404629707 0.53494244814 -0.16840609908 -6.5467047691 0.020644357428
          2.5953764915 -12.086073875 0.20579147339 4.4508218765 -14.06510067 -0.17842967808
          0.23557449877 -10.45169735 -0.45036792755 -0.1993265301 -4.8581533432 0.031998526305
          -0.15090936422 -3.3883571625 -0.028487434611 6.1267976761 -14.092986107 0.19988873601
          0.23534019291 -10.441401482 -0.19585485756 1.2767523527 -12.019702911 -0.3510376215
          -0.1474493891 -8.3332805634 -0.0092962151393 13.060588837 -16.732036591 -0.59865278006
          0 0 0 10.940563202 -16.44836998 -0.53019696474
          0.99787247181 -10.141016006 0.41847974062 -0.10603661835 -2.0668900013 -0.046306613833
          8.0520038605 -14.182041168 0.47114267945 -0.171386078 -8.4494895935 -0.06526453793
          1.2980127335 -12.064538956 -0.17484565079 -0.098461546004 -8.4971189499 0.50967878103
          13.061877251 -16.781835556 -0.29842075706 0 0 0
          -0.20064675808 -4.8784098625 -8.3033210103e-06 4.4178404808 -14.06998539 2.3515279679e-07
          -0.094841256738 -0.9510794878 0.076231375337 10.943163872 -16.499282837 -0.26433166862
          -0.07288069278 -0.97729879618 0.031822804362 0.2741676569 -10.450848579 -1.1738919966e-05
          8.8094987869 -16.202722549 -0.45724716783 -0.15291942656 -8.4591217041 -1.2102613255e-05
          1.3223078251 -12.097907066 -7.3410728874e-06 13.064172745 -16.798099518 1.5641880964e-05
          0 0 0 -0.16051870584 -2.0432066917 0.098739556968
          8.8161640167 -16.253286362 -0.22686384618 10.945159912 -16.515451431 1.2021393559e-05
          -0.15960913897 -6.4694504738 0.044772516936 2.5920801163 -12.073117256 0.42256188393
          -0.071623019874 -0.9841864109 -1.3689544858e-06 -0.14603379369 -2.0804235935 0.050790060312
          6.1429219246 -14.072735786 0.40157020092 -0.15330563486 -3.3390979767 -0.053461357951
          -0.23617690802 -6.4598493576 0.072433061898 3.0610849857 -14.069811821 -0.36788338423
          -0.1993278265 -4.8581528664 -0.032014891505 4.4508247375 -14.065093994 0.17843019962
          -0.23809593916 -6.5262064934 0.034299328923 3.0709643364 -14.063062668 -0.17725977302
          0.23534199595 -10.44139576 0.19583159685 8.8194551468 -16.268661499 8.3432760221e-06
          -0.14076797664 -2.0925297737 -3.1963243146e-06 6.6464123726 -16.032148361 -0.38563653827
          -0.17138682306 -8.4494857788 0.065240360796 1.2980144024 -12.064531326 0.17483109236
          13.061880112 -16.781827927 0.2984520793 0 0 0
          -0.21349512041 -3.3035247326 0.11048796773 6.6483955383 -16.064207077 -0.19312101603
          10.943167686 -16.499277115 0.26435574889 -0.20534589887 -3.3465197086 0.057386852801
          -0.23836167157 -6.5488195419 -1.005699869e-05 3.0701174736 -14.06036377 -3.0258634069e-06
          -0.072881251574 -0.9772990942 -0.03182554245 8.8161668777 -16.253278732 0.22688062489
          6.6409902573 -16.063537598 4.7697512855e-06 -0.20246562362 -3.3611466885 -5.1529095799e-06
          4.4611697197 -14.052088737 0.3693793118 0.54705566168 -12.33957386 -0.47795653343
          -0.14603495598 -2.0804238319 -0.050796493888 -0.20106442273 -4.8031682968 -0.05830610171
          -0.29389292002 -10.475076675 -0.15728706121 0.56317204237 -12.315267563 -0.17477220297
          0.23557837307 -10.451683998 0.45034456253 -0.26470693946 -10.501346588 -0.14995953441
          -0.23809705675 -6.5262055397 -0.034319143742 3.070966959 -14.063055992 0.17725376785
          1.276755929 -12.01968956 0.35102331638 -0.14745110273 -8.333275795 0.0092733772472
          -0.25537067652 -4.7498569489 0.11988356709 4.858186245 -16.036148071 -0.32977363467
          13.060595512 -16.732021332 0.5986841917 0 0 0
          10.940570831 -16.448354721 0.53022122383 -0.25041481853 -4.7957811356 0.062017463148
          0.57259690762 -12.356919289 -1.0903840121e-05 -0.28396549821 -8.313457489 0.069864287972
          1.7760163546 -14.090177536 -0.40871760249 4.8168263435 -16.02120018 -0.16776745021
          -0.094843611121 -0.95108032227 -0.076234564185 -0.07857400924 -10.344159126 -1.3161814422e-05
          6.648399353 -16.064199448 0.19313065708 -0.20534735918 -3.3465201855 -0.057397078723
          1.7204909325 -14.040241241 -0.18374788761 -0.28028789163 -8.3811302185 0.036041233689
          8.8095054626 -16.202707291 0.45726418495 -0.2491748929 -4.812271595 -6.9958755375e-06
          4.7335743904 -15.989433289 1.3645035324e-06 -0.16052228212 -2.0432078838 -0.098746061325
          1.6478298903 -13.985954285 -6.3089701143e-06 14.066329956 -18.893079758 -0.60469573736
          0 0 0 -0.26542088389 -8.3939285278 -1.1569187336e-05
          14.064972878 -18.946363449 -0.30171692371 0 0 0
          0.5631736517 -12.315259933 0.1747508347 11.833696365 -18.605138779 -0.53257828951
          -0.23618011177 -6.4598498344 -0.072451882064 3.0610897541 -14.069799423 0.36787754297
          -0.13355579972 -0.90887933969 0.11608722806 -0.26470917463 -10.501344681 0.1499338001
          11.832640648 -18.659461975 -0.26609843969 -0.099627234042 -0.93525016308 0.048464402556
          6.6464190483 -16.03213501 0.38564652205 14.0656147 -18.96389389 1.8194021322e-05
          -0.25041627884 -4.7957820892 -0.062031295151 9.5797357559 -18.346345901 -0.45848983526
          -0.21329040825 -1.9664719105 0.15137079358 4.8168296814 -16.021194458 0.16777023673
          0 0 0 3.497910738 -16.04835701 -0.3619312346
          -0.28542369604 -6.3880681992 0.12934300303 -0.21349911392 -3.3035266399 -0.11049798131
          -0.19087295234 -2.0034096241 0.077648095787 9.5809926987 -18.403957367 -0.22929379344
          11.833226204 -18.677581787 1.4143118278e-05 1.7204937935 -14.040234566 0.18373535573
          -0.28068888187 -6.4340615273 0.068133167922 3.4969346523 -16.025814056 -0.1842790693
          -0.2802888453 -8.3811292648 -0.036063890904 -0.097508661449 -0.94139236212 -9.8515454283e-07
          -0.24493548274 -12.635968208 -0.45215937495 9.5830392838 -18.423568726 1.0033808394e-05
          0.54705941677 -12.339559555 0.47793531418 -0.18271005154 -2.0142896175 -2.4149435376e-06
          -0.28017559648 -6.4508833885 -8.6418776846e-06 -0.17871625721 -12.638427734 -0.20205937326
          3.4862546921 -16.010087967 -1.9780352432e-06 -0.29389578104 -10.475072861 0.15726546943
          14.064975739 -18.946353912 0.30175334215 7.2727627754 -18.107946396 -0.37669298053
          -0.28778645396 -10.321600914 0.06547178328 0 0 0
          -0.26673671603 -3.1988322735 0.16763953865 0.82153064013 -14.220932961 -0.37436932325
          -0.25599640608 -3.2405078411 0.086190998554 7.2919344902 -18.166471481 -0.18902908266
          11.832644463 -18.659454346 0.2661267519 -0.2922065258 -10.397937775 0.013687462546
          0.87186998129 -14.220999718 -0.20850358903 -0.099627777934 -0.93525052071 -0.048466414213
          -0.25537455082 -4.7498588562 -0.11989691854 4.858191967 -16.03613472 0.32977664471
          -0.15364065766 -12.604139328 -1.4036620087e-05 -0.28396809101 -8.3134565353 -0.069885581732
          1.7760213614 -14.090165138 0.40870523453 7.310259819 -18.187196732 6.0219090301e-06
          9.5809965134 -18.40394783 0.22931393981 -0.31593558192 -10.390595436 -1.2712447642e-05
          -0.19087405503 -2.0034103394 -0.077652998269 -0.25131472945 -3.2534887791 -4.0048521441e-06
          -0.28069019318 -6.4340620041 -0.0681502074 3.4969375134 -16.025806427 0.1842751503
          0.87586027384 -14.178293228 -9.2726941148e-06 2.3091404438 -16.016613007 -0.37467038631
          -0.29153704643 -8.2069482803 0.14384621382 2.3024234772 -16.011806488 -0.18632802367
          -0.28943350911 -8.2536745071 0.073243916035 14.066336632 -18.893064499 0.60473227501
          0 0 0 -0.17871618271 -12.638421059 0.20203141868
          -0.30241316557 -4.6211266518 0.17458185554 5.1612553596 -17.94049263 -0.29801136255
          -0.29791942239 -4.6622228622 0.089793697 11.833703995 -18.605121613 0.53260678053
          -0.13355781138 -0.90888029337 -0.1160897091 5.1279864311 -17.936847687 -0.17909535766
          7.2919383049 -18.166463852 0.18904128671 -0.2922064662 -10.397936821 -0.013712490909
          -0.25599780679 -3.2405087948 -0.086198993027 0.87187129259 -14.220993042 0.20848487318
          2.27501297 -15.998058319 -5.1358538258e-06 -0.293802917 -8.2682580948 -1.0052267498e-05
          9.5797433853 -18.346330643 0.45851022005 -0.2132935226 -1.9664735794 -0.15137587488
          3.4979159832 -16.048343658 0.3619273901 -0.29669430852 -4.6750831604 -5.5395285017e-06
          -0.2854270637 -6.3880705833 -0.12935931981 5.0315833092 -17.917566299 2.4211394702e-06
          15.07867527 -21.177648544 -0.60857260227 0 0 0
          -0.2449324429 -12.635954857 0.45213118196 2.3024258614 -16.011800766 0.18631771207
          0 0 0 12.731028557 -20.888917923 -0.53683513403
          -0.3318900466 -12.304289818 0.13434940577 -0.28943428397 -8.2536745071 -0.073263727129
          -0.17306421697 -0.8340485692 0.15985535085 0.081203863025 -14.473452568 -0.37531709671
          15.076828957 -21.231311798 -0.30401137471 7.272769928 -18.107931137 0.37670567632
          12.728689194 -20.943161011 -0.26890030503 -0.12680909038 -0.8600204587 0.067271791399
          -0.28778734803 -10.321599007 -0.065496049821 -0.36403009295 -12.429238319 -0.043585896492
          -0.26674026251 -3.1988346577 -0.16764749587 3.9432420731 -17.906938553 -0.34434685111
          -0.2979208231 -4.6622242928 -0.089804686606 0.8215342164 -14.220919609 0.37435007095
          -0.31604984403 -6.2302126884 0.17952682078 5.1279902458 -17.936841965 0.17910027504
          0.088877685368 -14.492785454 -0.14413546026 -0.31414675713 -6.2684345245 0.092652119696
          3.9755218029 -17.909202576 -0.14388543367 10.370335579 -20.623878479 -0.46639484167
          15.076268196 -21.249156952 2.1014026061e-05 -0.26460838318 -1.8362491131 0.20933648944
          0 0 0 10.368159294 -20.683050156 -0.23323863745
          -0.23517528176 -1.8720290661 0.10765429586 12.728271484 -20.961843491 1.6445970687e-05
          1.0833594799 -15.945743561 -0.33079329133 -0.28930586576 -12.464998245 -1.3890194168e-05
          0.10024642199 -14.475910187 -1.2464293832e-05 -0.28762990236 -10.152443886 0.15913924575
          -0.12445068359 -0.86476749182 -6.3811364726e-07 1.0836685896 -15.977468491 -0.14152877033
          3.9951984882 -17.927242279 -1.2092247061e-06 -0.29002287984 -10.208431244 0.08198557049
          -0.31377843022 -6.2810111046 -6.8958720476e-06 2.3091449738 -16.016599655 0.3746599555
          10.369128227 -20.703392029 1.181458083e-05 -0.29153943062 -8.2069501877 -0.14386513829
          -0.22418498993 -1.8808809519 -1.6780943497e-06 7.972671032 -20.367013931 -0.37865304947
          15.076831818 -21.231302261 0.30405345559 1.0778616667 -16.015077591 -8.2675269368e-06
          -0.32346284389 -3.0300190449 0.22823598981 -0.30241665244 -4.6211295128 -0.17459261417
          -0.28526100516 -10.23459816 -1.138933294e-05 5.1612610817 -17.940477371 0.29801675677
          0 0 0 7.9840450287 -20.439649582 -0.19191716611
          -0.31021612883 -3.0712022781 0.11850336194 12.728693008 -20.943151474 0.2689332366
          -0.36402994394 -12.429234505 0.043558359146 0.088877551258 -14.492777824 0.14411053061
          -0.12680959702 -0.86002081633 -0.067273139954 3.9755249023 -17.909196854 0.1438832432
          -0.31414803863 -6.268435955 -0.09266577661 10.368163109 -20.683040619 0.23326234519
          8.0000095367 -20.468938828 7.2465441008e-06 2.7713387012 -17.908468246 -0.33992815018
          -0.29273954034 -8.00822258 0.18134379387 -0.30441865325 -3.0815200806 -2.8919841952e-06
          -0.23517628014 -1.8720297813 -0.10765775293 -0.29313972592 -8.0415592194 0.099048867822
          1.0836697817 -15.977461815 0.14151230454 2.7454192638 -17.879138947 -0.14394855499
          -0.29002282023 -10.20843029 -0.082007944584 5.5465874672 -20.029382706 -0.2533864677