<?xml version="1.0"?>
<VTKFile type="UnstructuredGrid" version="0.1" byte_order="LittleEndian" header_type="UInt32" compressor="vtkZLibDataCompressor">
  <UnstructuredGrid>
    <Piece NumberOfPoints="6405" NumberOfCells="4800">
      <PointData>
        <DataArray type="Float32" Name="DISPLACEMENT" NumberOfComponents="3" ComponentName0="X-DISPLACEMENT" ComponentName1="Y-DISPLACEMENT" ComponentName2="Z-DISPLACEMENT" format="ascii" RangeMin="0" RangeMax="245.08859384">
          0 0 0 0 0 0
          1.9553047419 -1.1843585968 -0.90764868259 0 0 0
          1.2747681141 -0.69210040569 -0.70837306976 0 0 0
          1.7830836773 -1.3057466745 -0.36153951287 1.1083499193 -0.79271608591 -0.28897279501
          0 0 0 3.5155482292 -2.1528110504 -0.93638581038
          0 0 0 3.4630947113 -2.2976045609 -0.48360413313
          2.5621693134 -1.7551748753 -0.78373014927 0 0 0
          0 0 0 1.7890226841 -1.3477258682 -9.0590043555e-07
          0.93838453293 -0.45914244652 -0.54921466112 1.1038777828 -0.81341820955 -2.7791961088e-07
          2.5061836243 -1.8707340956 -0.40017941594 0.80599492788 -0.55319106579 -0.22285915911
          3.4239869118 -2.3386132717 -2.0092084014e-06 1.8791899681 -1.4219421148 -0.61772185564
          0 0 0 2.4717888832 -1.9091831446 -8.3782924776e-07
          1.8226356506 -1.5287834406 -0.31675168872 0 0 0
          4.9444332123 -3.3971874714 -0.88448917866 0 0 0
          0.7989487648 -0.57104635239 3.8657688606e-07 0 0 0
          0 0 0 1.7830837965 -1.3057477474 0.36153772473
          3.7771933079 -3.0122039318 -0.75152152777 4.9576191902 -3.5039117336 -0.45114630461
          0.6572625041 -0.2915635705 -0.37366995215 1.1083494425 -0.79271733761 0.28897216916
          3.7884101868 -3.1126012802 -0.38305312395 0.577881217 -0.39220398664 -0.15462143719
          1.7933681011 -1.5574001074 4.430246463e-07 3.4630942345 -2.297606945 0.48359999061
          0 0 0 0 0 0
          1.2993956804 -1.2028785944 -0.44010493159 2.8396642208 -2.704990387 -0.62074315548
          4.9452009201 -3.5427670479 -3.4309707644e-06 2.5061824322 -1.870736599 0.4001776278
          2.832760334 -2.8004312515 -0.31521779299 0.80599451065 -0.5531925559 0.22285984457
          3.7796387672 -3.1462655067 -1.736679792e-06 1.2437647581 -1.3070524931 -0.2249943316
          0.59238010645 -0.40628221631 1.3394770804e-06 0 0 0
          6.2823238373 -4.8148856163 -0.79793226719 0 0 0
          4.9337663651 -4.4595136642 -0.69568890333 1.8226345778 -1.5287863016 0.31675246358
          6.3170771599 -4.8947300911 -0.40379750729 1.9553040266 -1.1843607426 0.90764671564
          0 0 0 0 0 0
          1.225564599 -1.3332052231 1.9505555429e-06 2.8234570026 -2.8300738335 3.8014121628e-08
          0.23592546582 -0.18197980523 -0.17054380476 4.9649887085 -4.5383238792 -0.35098999739
          1.274766922 -0.69210296869 0.70837217569 1.9893401861 -2.4957318306 -0.48769652843
          0 0 0 4.9576177597 -3.5039150715 0.45113927126
          0.18660138547 -0.30491611362 -0.085019394755 1.9645038843 -2.5825724602 -0.24842184782
          3.788408041 -3.1126050949 0.38304948807 0.57788085938 -0.39220565557 0.15462391078
          3.7824273109 -4.1696705818 -0.59496325254 0.51032668352 -1.0689345598 -0.27804753184
          6.3181872368 -4.9226150513 -5.1509377954e-06 3.5155463219 -2.1528155804 0.93638134003
          0 0 0 0 0 0
          3.7966761589 -4.2468061447 -0.30010804534 2.5621669292 -1.7551800013 0.7837280035
          4.969751358 -4.5656480789 -3.0316971333e-06 0.45463711023 -1.1680860519 -0.14499561489
          0.93838399649 -0.45914554596 0.54921513796 0.21559165418 -0.33539414406 2.5963620374e-06
          1.9551686049 -2.6106369495 2.0823551949e-06 2.8327584267 -2.8004355431 0.31521776319
          1.2437636852 -1.3070555925 0.2249981463 3.7977023125 -4.2730078697 -8.8484335947e-07
          1.8791882992 -1.4219478369 0.61772233248 0.44854652882 -1.1981787682 3.6376520711e-06
          2.7166395187 -3.957606554 -0.4979480207 6.3170742989 -4.8947343826 0.40378698707
          4.9444293976 -3.3971943855 0.88448172808 0 0 0
          7.5171575546 -6.3733439445 -0.72284728289 0 0 0
          0 0 0 1.0185286999 -2.3486652374 -0.39631518722
          2.7164435387 -4.0315961838 -0.2516811192 7.5528001785 -6.433277607 -0.36312800646
          6.0237698555 -6.0417494774 -0.64409631491 4.9649853706 -4.5383286476 0.3509837389
          0.071640141308 -0.33380645514 -0.18592406809 0 0 0
          3.7771890163 -3.0122113228 0.75151747465 0.65726286173 -0.29156696796 0.37367218733
          0.98561304808 -2.4221477509 -0.19232289493 0.18660020828 -0.30491805077 0.085024148226
          0.0066346265376 -0.38432046771 -0.068145848811 1.9645022154 -2.5825772285 0.24842593074
          6.0562543869 -6.1034708023 -0.32280740142 3.7966730595 -4.2468118668 0.30010613799
          2.7141394615 -4.0582075119 1.5631188717e-06 7.5590867996 -6.4543542862 -7.1851677603e-06
          0.23821850121 -1.2285021544 -0.31398791075 0.45463505387 -1.1680893898 0.14500284195
          0 0 0 4.7017741203 -5.7618217468 -0.56423509121
          1.2993947268 -1.2028849125 0.44010844827 2.8396606445 -2.7049987316 0.62074279785
          0.97643089294 -2.4484577179 4.5591696107e-06 6.0647311211 -6.1248345375 -4.7645871746e-06
          0.033639252186 -0.44993382692 5.4552556321e-06 0.22952187061 -1.2732496262 -0.13027338684
          4.7213792801 -5.8244152069 -0.28315407038 6.2823176384 -4.8148946762 0.79792118073
          0 0 0 1.6829648018 -3.7870290279 -0.4137750566
          4.9337596893 -4.459523201 0.6956821084 0.2375728488 -1.3206548691 7.385423487e-06
          1.6740964651 -3.8615589142 -0.20171436667 4.7265181541 -5.8460597992 -2.3821246486e-06
          0.2359251529 -0.18198361993 0.17054796219 2.7164409161 -4.0316023827 0.25168418884
          3.4765365124 -5.5324130058 -0.48279842734 7.5527954102 -6.4332828522 0.36311337352
          0.47787219286 -2.3658566475 -0.29182058573 1.9893375635 -2.4957411289 0.48770034313
          0 0 0 0.98561036587 -2.4221527576 0.19233198464
          3.4839994907 -5.5973610878 -0.24242672324 0.0066314926371 -0.38432222605 0.068155929446
          0.48946753144 -2.4445667267 -0.14219857752 6.0562496185 -6.1034770012 0.32279762626
          3.7824215889 -4.1696815491 0.59496098757 0.51032471657 -1.0689413548 0.27805444598
          8.6558856964 -8.0359544754 -0.66347187757 0 0 0
          1.6629118919 -3.8839468956 4.6561394811e-06 7.0483541489 -7.7269663811 -0.60146397352
          8.6861419678 -8.0829524994 -0.33235427737 0 0 0
          -0.0072873863392 -0.59630894661 -0.080288089812 7.0762076378 -7.7763152122 -0.30055335164
          3.483938694 -5.6190414429 3.1411084933e-07 -0.04234783724 -0.63196277618 -0.04694885388
          0.22951853275 -1.2732532024 0.13028788567 0.48197087646 -2.4695739746 8.3474369603e-06
          4.7213745117 -5.8244218826 0.28314915299 5.589225769 -7.462020874 -0.53689402342
          -0.26138046384 -1.3711390495 -0.21647018194 8.6930980682 -8.0994386673 -9.5920604508e-06
          0 0 0 -0.26314386725 -1.4336071014 -0.092033684254
          5.6075239182 -7.5130114555 -0.26838821173 7.084508419 -7.7934579849 -7.0089549808e-06
          -0.039067976177 -0.64537018538 5.5212453844e-06 2.7166349888 -3.9576189518 0.49795094132
          2.3246386051 -5.3424625397 -0.38733065128 7.5171484947 -6.3733539581 0.72283184528
          0 0 0 0.7308626771 -3.6846978664 -0.24385756254
          1.6740936041 -3.8615658283 0.2017237097 1.0185251236 -2.348675251 0.39632412791
          6.0237603188 -6.0417609215 0.64408588409 0.071639239788 -0.33381208777 0.18593345582
          0.73065751791 -3.779176712 -0.13668641448 2.3206436634 -5.4148387909 -0.19502641261
          3.483995676 -5.597369194 0.24242733419 0.48946401477 -2.4445722103 0.14221522212
          5.6132192612 -7.5304527283 -4.5075639719e-06 -0.24579581618 -1.4501717091 1.1295138393e-05
          4.2320761681 -7.2478647232 -0.46886301041 -0.11999924481 -2.5372905731 -0.22124473751
          0.23821531236 -1.2285112143 0.31400233507 8.6861343384 -8.0829582214 0.33233472705
          4.7017655373 -5.7618346214 0.5642297864 0 0 0
          2.3179147243 -5.4352297783 3.6503859064e-06 0.726996243 -3.7967936993 8.5295487224e-06
          4.2390422821 -7.2994103432 -0.23386067152 7.0762004852 -7.776321888 0.30053898692
          -0.14534929395 -2.5998380184 -0.096423476934 -0.042350050062 -0.63196450472 0.046959094703
          1.6829601526 -3.7870428562 0.41378447413 4.241104126 -7.3154354095 -1.7217711274e-06
          5.6075172424 -7.5130190849 0.26837900281 -0.2631496489 -1.4336093664 0.092057019472
          -0.13133820891 -2.6305155754 1.2777204574e-05 9.7129507065 -9.7781133652 -0.61866998672
          0 0 0 9.736697197 -9.8169660568 -0.30961340666
          3.4765293598 -5.5324282646 0.48279890418 8.0118570328 -9.4895610809 -0.56749492884
          0.47786745429 -2.3658685684 0.29183739424 1.0195521116 -5.2083172798 -0.25834819674
          0.019175263122 -0.77824324369 -0.070395663381 0.73065388203 -3.779184103 0.13670346141
          2.320640564 -5.4148478508 0.19503387809 0 0 0
          8.0340480804 -9.5306615829 -0.28307062387 1.0091389418 -5.2921032906 -0.13999170065
          -0.01060278248 -0.80024772882 -0.027372915298 2.9208543301 -7.0880689621 -0.39246034622
          0.049112975597 -3.8650164604 -0.27548292279 8.655872345 -8.0359659195 0.66345131397
          0 0 0 7.0483403206 -7.7269787788 0.60144871473
          9.7428703308 -9.8305807114 -1.2545414393e-05 0.0014126456808 -3.8886373043 -0.10913892835
          2.9096672535 -7.1352419853 -0.19741886854 -0.0072858436033 -0.59631031752 0.080295950174
          6.4315266609 -9.2467556 -0.51371562481 0.002679924015 -1.6477060318 -0.11813069135
          0 0 0 4.2390365601 -7.2994198799 0.23385719955
          -0.1453525126 -2.5998439789 0.096449188888 8.0407953262 -9.5448312759 -9.9315257103e-06
          1.0175043344 -5.3153333664 7.8092580225e-06 6.4477386475 -9.2885837555 -0.25584208965
          -0.028773520142 -1.6924473047 -0.05838181451 -0.011742942035 -0.80949121714 4.6556756388e-06
          5.5892128944 -7.462035656 0.53688424826 -0.26138347387 -1.371150732 0.21649424732
          2.9080941677 -7.1489424706 1.7250224573e-06 0.019619358703 -3.9244184494 1.2590382539e-05
          2.3246328831 -5.3424801826 0.38733842969 6.4525856972 -9.3027143478 -7.3552564572e-06
          -0.037016738206 -1.7035740614 8.4001467258e-06 0.73085713387 -3.6847128868 0.24387469888
          9.7366867065 -9.8169717789 0.30958786607 4.9439053535 -9.0673551559 -0.46040868759
          0 0 0 -0.06363427639 -2.7322177887 -0.15153235197
          4.9523940086 -9.1062507629 -0.2283320874 8.03403759 -9.5306682587 0.28305029869
          -0.010603989474 -0.80024832487 0.02738150768 1.0091353655 -5.2921123505 0.14000764489
          -0.082254841924 -2.7819011211 -0.070950813591 4.2320656776 -7.247882843 0.46885946393
          1.4412682056 -6.9570384026 -0.33985027671 2.9096641541 -7.1352534294 0.19742268324
          -0.12000296265 -2.5373046398 0.22127117217 0.0014104592847 -3.8886454105 0.10916460305
          0.31318819523 -5.389980793 -0.36981007457 1.4137619734 -6.9968481064 -0.16483545303
          4.9545578957 -9.1190042496 -4.5407791731e-06 6.4477291107 -9.2885923386 0.25582709908
          -0.028774959967 -1.6924488544 0.058398682624 0.28340253234 -5.3811593056 -0.14303725958
          -0.0957146734 -2.7987952232 1.1214479855e-05 10.707839966 -11.581439018 -0.58712017536
          0 0 0 0.030763445422 -0.85682868958 -0.041893389076
          1.4110105038 -7.0108809471 6.2825615714e-06 3.510591507 -8.9556264877 -0.41402176023
          8.9240293503 -11.307853699 -0.54078489542 9.712931633 -9.7781238556 0.61864298582
          0 0 0 0 0 0
          0.29477903247 -5.4179086685 1.1693815395e-05 -0.10119000822 -4.0417346954 -0.14543840289
          10.725266457 -11.616394997 -0.29356876016 3.5069377422 -8.9833555222 -0.20615102351
          8.9406175613 -11.344572067 -0.26928323507 8.011838913 -9.4895744324 0.56747335196
          0.012284355238 -0.87723094225 -0.017172727734 1.0195461512 -5.2083358765 0.25836476684
          0.019176254049 -0.77824270725 0.070403255522 -0.13699196279 -4.0971546173 -0.10545738786
          4.9523859024 -9.1062612534 0.22832293808 -0.082256913185 -2.7819037437 0.070972979069
          7.2274794579 -11.082255363 -0.49063336849 2.9208469391 -7.0880908966 0.39246460795
          0.049110177904 -3.8650336266 0.27551025152 0 0 0
          0.012363014743 -1.8117105961 -0.070502065122 10.730416298 -11.628477097 -1.6437285012e-05
          0.0096480324864 -0.88352328539 2.7713742838e-06 3.5063135624 -8.9945220947 -1.108889137e-06
          7.2407784462 -11.118767738 -0.2429792583 6.4315090179 -9.2467708588 0.51369971037
          8.9454154968 -11.356574059 -1.3873581338e-05 0.0026803507935 -1.6477059126 0.11814480275
          -0.13194963336 -4.1044201851 1.3317291632e-05 -0.0060084504075 -1.8441739082 -0.03314717114
          1.4137610197 -6.9968605042 0.16484884918 0.28340271115 -5.3811707497 0.14306244254
          0.67032670975 -7.0875496864 -0.39531069994 7.2428946495 -11.129763603 -1.1107580576e-05
          -0.012450488284 -1.8559308052 5.081573363e-06 0.68129116297 -7.0923147202 -0.17150473595
          5.6148395538 -10.924530983 -0.44103237987 0 0 0
          -0.028480455279 -2.9313437939 -0.088372133672 10.725252151 -11.616399765 0.29353529215
          0.012283569202 -0.87723016739 0.01717778109 3.506932497 -8.9833698273 0.20614920557
          5.6244792938 -10.956914902 -0.21713528037 4.9438900948 -9.0673751831 0.46039921045
          8.9406032562 -11.344578743 0.26925489306 2.0680980682 -8.8465242386 -0.41232040524
          -0.3160675168 -5.6630210876 -0.41944310069 -0.063634760678 -2.7322187424 0.15155118704
          -0.047683928162 -2.9736392498 -0.04453022778 -0.13699455559 -4.0971589088 0.1054835096
          2.040990591 -8.8611536026 -0.18994224072 -0.29358077049 -5.6327433586 -0.1895095557
          0.67816287279 -7.1136679649 1.1026054381e-05 1.4412646294 -6.9570627213 0.33986607194
          7.2407650948 -11.118777275 0.24295650423 0.31318712234 -5.3900027275 0.36983767152
          5.6229128838 -10.967229843 -8.2049027696e-06 -0.0060098515823 -1.8441728354 0.033156622201
          -0.053317222744 -2.9871001244 6.9508400884e-06 2.0157754421 -8.8651227951 3.9113406274e-06
          -0.27675166726 -5.6367020607 1.6025775039e-05 -0.092977680266 -4.2692551613 -0.12089411169
          4.0854873657 -10.826294899 -0.40598732233 10.707814217 -11.581448555 0.58708494902
          0 0 0 0.68129301071 -7.0923290253 0.17152859271
          0.030764009804 -0.85682535172 0.041897404939 -0.10721719265 -4.3134980202 -0.060796409845
          3.5105800629 -8.9556512833 0.41402062774 8.9240036011 -11.307866096 0.54075485468
          4.0913133621 -10.851863861 -0.19886520505 11.663090706 -13.438311577 -0.56790548563
          0 0 0 -0.10119024664 -4.0417366028 0.1454603225
          11.674416542 -13.47299099 -0.283626616 0.012898726389 -0.89936327934 -0.018299961463
          9.7999820709 -13.172234535 -0.52088773251 5.6244673729 -10.956926346 0.21711857617
          0 0 0 -0.04768608138 -2.9736382961 0.044543232769
          9.8112802505 -13.208157539 -0.2589199841 0.0049296044745 -0.91781777143 -0.0069466447458
          2.0409948826 -8.8611707687 0.18995112181 -0.29358232021 -5.6327548027 0.18954601884
          7.2274541855 -11.082271576 0.4906091392 -0.11174315959 -4.3296170235 8.8038541435e-06
          4.0869221687 -10.861591339 -4.9264235713e-06 0.012362698093 -1.8117051125 0.070509910583
          0.98905169964 -8.8180437088 -0.32546007633 0.0068067689426 -1.899895072 -0.029896298423
          7.9909443855 -12.952339172 -0.46854925156 -0.080880269408 -7.3264107704 -0.37853804231
          11.678373337 -13.484632492 -2.2031361368e-05 0 0 0
          1.0046849251 -8.8601827621 -0.16943947971 9.8146896362 -13.219099045 -1.9422348487e-05
          0.003617574228 -0.92362499237 6.3759091518e-07 7.9983663559 -12.985115051 -0.2304919064
          -0.0025693059433 -1.9287885427 -0.014223976992 -0.065974637866 -7.3343572617 -0.17609426379
          0.67032462358 -7.0875754356 0.39533671737 0.99653178453 -8.8614416122 1.0341408597e-05
          -0.10451252013 -5.7662596703 -0.1274663955 -0.10722079128 -4.313498497 0.060813233256
          2.712376833 -10.742507935 -0.37954169512 7.9965620041 -12.990972519 -1.611202606e-05
          5.6148166656 -10.924552917 0.44101476669 4.0913052559 -10.851880074 0.19885551929
          -0.047482993454 -7.3377747536 1.4753146388e-05 -0.0057626492344 -1.9385373592 7.364945418e-07
          -0.028482155874 -2.9313366413 0.088382810354 11.674397469 -13.472995758 0.28358188272
          6.2580504417 -12.802556992 -0.41104477644 -0.12192767859 -5.8320059776 -0.086580686271
          -0.0140407281 -3.0508472919 -0.041110120714 2.6946282387 -10.762677193 -0.18435400724
          2.0680983067 -8.8465547562 0.41233065724 -0.31607171893 -5.663043499 0.41948029399
          0 0 0 -0.022932326421 -3.0871222019 -0.019710127264
          9.8112611771 -13.208163261 0.25888037682 0.0049287551083 -0.91781616211 0.0069476044737
          6.2526340485 -12.828861237 -0.19716466963 -0.1260111928 -5.8303108215 1.122806043e-05
          2.664904356 -10.762565613 -2.2339165184e-07 1.0046850443 -8.8602018356 0.1694611907
          6.2361354828 -12.831224442 -1.2571152183e-05 -0.02688210085 -3.0997416973 6.0970330651e-07
          7.9983463287 -12.985123634 0.23045887053 -0.0025710456539 -1.9287859201 0.014225090854
          -0.065973103046 -7.3343744278 0.176126495 -0.09298247844 -4.2692494392 0.12090789527
          4.0854711533 -10.826322556 0.4059779346 4.650812149 -12.715991974 -0.37059888244
          11.663054466 -13.43832016 0.56785869598 0 0 0
          -0.02942584455 -4.3778452873 -0.047665089369 0.012897415087 -0.89935833216 0.018300073221
          9.799946785 -13.172245979 0.52084594965 -0.1219329983 -5.8320121765 0.086600847542
          2.6946308613 -10.762698174 0.18435405195 4.6366486549 -12.739480972 -0.17224656045
          0.1726140976 -9.063750267 -0.37441283464 -0.040393199772 -4.4221301079 -0.02524776943
          -0.022935073823 -3.0871193409 0.019710926339 6.2526154518 -12.828874588 0.19713823497
          0.16156077385 -9.0608539581 -0.15183156729 1.3127502203 -10.660749435 -0.29789510369
          -0.20743843913 -7.397046566 -0.11756319553 12.598921776 -15.353738785 -0.55917352438
          0 0 0 10.65524292 -15.089782715 -0.5089520216
          0.98904508352 -8.8180770874 0.32547932863 0.0068039740436 -1.8998868465 0.029896339402
          7.9909086227 -12.952355385 0.4685138762 -0.20926631987 -7.4683470726 -0.12498801947
          1.3028005362 -10.694791794 -0.1585495621 -0.080883592367 -7.3264389038 0.3785738945
          12.604945183 -15.390253067 -0.27899694443 0 0 0
          -0.043900467455 -4.4362506866 4.853760629e-07 4.6110448837 -12.748003006 -9.7184065453e-06
          -0.0063550584018 -0.9097507596 0.0068483636715 10.661190033 -15.127012253 -0.25300437212
          -0.0050360369496 -0.92819911242 0.0030208472162 0.18617922068 -9.0834169388 8.5840019892e-06
          8.7372570038 -14.867155075 -0.45353251696 -0.16515313089 -7.4732904434 1.3354098883e-05
          1.2991169691 -10.698423386 5.1783376875e-06 12.607757568 -15.402194977 -3.0512710509e-05
          0 0 0 -0.0081555172801 -1.9233212471 0.0076102819294
          8.7410707474 -14.899274826 -0.22271022201 10.663271904 -15.138152122 -2.7507059713e-05
          -0.10451968014 -5.7662591934 0.12748110294 2.7123680115 -10.742542267 0.37954184413
          -0.0052284607664 -0.93352502584 -1.6801855054e-06 -0.0087403655052 -1.9512089491 0.0043512443081
          6.25801754 -12.80257988 0.4110160768 -0.014045306481 -3.0508365631 0.041109573096
          -0.054325729609 -5.8845925331 -0.058105014265 3.203455925 -12.672976494 -0.34553053975
          -0.040397152305 -4.4221282005 0.025248054415 4.6366357803 -12.739499092 0.17222671211
          -0.064136050642 -5.9345331192 -0.031822826713 3.1924548149 -12.684332848 -0.16957511008
          0.16156847775 -9.0608758926 0.15185584128 8.7407541275 -14.903691292 -2.2859621822e-05
          -0.0091896466911 -1.9605281353 -4.0724730752e-06 6.8829455376 -14.71231842 -0.39668571949
          -0.20927914977 -7.468357563 0.12501236796 1.3028005362 -10.694811821 0.15855967999
          12.604922295 -15.390255928 0.27893525362 0 0 0
          -0.003461439861 -3.079177618 0.0062951757573 6.8408002853 -14.727511406 -0.18891961873
          10.661165237 -15.127017021 0.25294852257 -0.0069064823911 -3.1142342091 0.0036367042921
          -0.063142463565 -5.9538064003 4.7694430805e-07 3.1771607399 -12.688047409 -6.5277977228e-06
          -0.0050370101817 -0.92819744349 -0.0030242644716 8.7410430908 -14.899281502 0.22266311944
          6.7912611961 -14.715246201 -1.8182214262e-05 -0.0082692056894 -3.1259768009 -6.7434020821e-06
          4.6507878304 -12.716024399 0.37057870626 0.46462291479 -10.89226532 -0.40255635977
          -0.0087425075471 -1.9512063265 -0.0043595242314 -0.029432337731 -4.3778338432 0.047663446516
          -0.5256485939 -9.3257188797 -0.33213311434 0.45983189344 -10.867557526 -0.14660172164
          0.1726180166 -9.0637865067 0.37444323301 -0.46736836433 -9.3278207779 -0.1793666333
          -0.064141757786 -5.934533596 0.031822476536 3.1924500465 -12.684357643 0.16956290603
          1.3127422333 -10.66078186 0.29791212082 -0.20744982362 -7.3970508575 0.11757244915
          0.0074770166539 -4.408387661 0.00083729124162 5.1729774475 -14.652357101 -0.35210484266
          12.598875999 -15.353745461 0.55910974741 0 0 0
          10.65519619 -15.089793205 0.50889348984 0.0013532444136 -4.4477381706 0.00084544834681
          0.45052483678 -10.882258415 1.2277889709e-06 -0.10030730069 -7.5886731148 -0.088741734624
          1.7384585142 -12.624510765 -0.35978209972 5.0900025368 -14.65106678 -0.16675698757
          -0.0063585285097 -0.909745574 -0.0068525406532 -0.17670166492 -9.2625293732 1.0201079021e-05
          6.8407678604 -14.727523804 0.18888154626 -0.0069094900973 -3.1142311096 -0.003650209168
          1.6955986023 -12.614654541 -0.15795592964 -0.10057993233 -7.6363458633 -0.047706887126
          8.7372055054 -14.867170334 0.4534817338 -0.00037251724279 -4.4620471001 -9.451009646e-06
          4.9872436523 -14.635002136 -1.5616031305e-05 -0.0081612477079 -1.9233125448 -0.0076188645326
          1.6525384188 -12.601592064 -7.059495033e-08 13.529073715 -17.339450836 -0.55786913633
          0 0 0 -0.083980858326 -7.6404657364 -1.227721782e-07
          13.531092644 -17.378372192 -0.27828806639 0 0 0
          0.45985004306 -10.867586136 0.1466152966 11.50019455 -17.075399399 -0.50460332632
          -0.054334521294 -5.8845820427 0.058101393282 3.2034430504 -12.673020363 0.34552142024
          -0.027682732791 -0.88986468315 0.033330019563 -0.46739575267 -9.3278465271 0.17939370871
          11.502444267 -17.114439011 -0.25141879916 -0.016817616299 -0.90933477879 0.013909460045
          6.8828969002 -14.712343216 0.39664360881 13.532811165 -17.391029358 -4.3285424908e-05
          0.0013496046886 -4.4477353096 -0.00086435460253 9.4785413742 -16.846925735 -0.44968351722
          -0.027607504278 -1.8877383471 0.047042097896 5.0899820328 -14.651088715 0.16672578454
          0 0 0 3.6518135071 -14.64826107 -0.35730525851
          0.027034578845 -5.9254598618 -0.011837816797 -0.0034686098807 -3.0791661739 -0.006308760494
          -0.020198168233 -1.9168078899 0.023731658235 9.4782876968 -16.883075714 -0.22295588255
          11.503633499 -17.126596451 -3.9207759983e-05 1.6956144571 -12.61468792 0.15795765817
          0.020388245583 -5.9669857025 -0.0065890015103 3.6292397976 -14.64173317 -0.17164024711
          -0.10058738291 -7.6363530159 0.047705478966 -0.016095338389 -0.91467839479 -4.0557815737e-06
          -0.37399104238 -11.152504921 -0.3997028172 9.4785909653 -16.893266678 -3.2303571061e-05
          0.46463385224 -10.892302513 0.40258100629 -0.017886387184 -1.9263061285 -8.9806362666e-06
          0.021086649969 -5.9820990562 -1.2315256754e-05 -0.3333684504 -11.147745132 -0.16957759857
          3.6087446213 -14.633739471 -1.2907700693e-05 -0.52567541599 -9.3257551193 0.33218875527
          13.531066895 -17.378376007 0.27820089459 7.4946918488 -16.67033577 -0.40159150958
          -0.11677375436 -9.4064569473 -0.098601512611 0 0 0
          -0.0092352479696 -3.0293142796 0.05298448354 0.77962726355 -12.755649567 -0.35769379139
          -0.0070438142866 -3.0654082298 0.027326609939 7.4563922882 -16.691215515 -0.20001263916
          11.50241375 -17.114440918 0.25133949518 -0.10362713039 -9.469493866 -0.075252667069
          0.78970569372 -12.763788223 -0.15868788958 -0.01681856811 -0.90933376551 -0.013917362317
          0.00746877864 -4.4083743095 -0.00085615931312 5.1729421616 -14.652393341 0.35207268596
          -0.31248033047 -11.12430954 -3.876394203e-06 -0.10031958669 -7.5886688232 0.088738754392
          1.738483429 -12.624570847 0.35979247093 7.4099254608 -16.687498093 -2.5348643248e-05
          9.4782485962 -16.883079529 0.22288909554 -0.126067698 -9.4693231583 -1.5896564491e-06
          -0.020200354978 -1.9168063402 -0.023749442771 -0.0063524409197 -3.0771431923 -1.413494374e-05
          0.020384371281 -5.9669852257 0.0065644555725 3.6292364597 -14.641758919 0.17161661386
          0.7535097599 -12.752296448 1.4090863942e-06 2.3362603188 -14.648698807 -0.3653459549
          0.061895243824 -7.6201357841 -0.026003755629 2.2632708549 -14.62217617 -0.16849656403
          0.057488642633 -7.6662535667 -0.018839297816 13.529020309 -17.339458466 0.5577801466
          0 0 0 -0.33333992958 -11.147788048 0.16958902776
          0.028989542276 -4.3497753143 0.051762074232 5.6016402245 -16.579881668 -0.36736273766
          0.025612816215 -4.3903422356 0.02574227564 11.500135422 -17.075408936 0.50452113152
          -0.027688160539 -0.88986063004 -0.033338479698 5.5092234612 -16.57526207 -0.19673807919
          7.456343174 -16.691225052 0.19995887578 -0.10362930596 -9.4695072174 0.075249105692
          -0.0070465374738 -3.0654067993 -0.027354434133 0.78972291946 -12.76382637 0.15870067477
          2.1666920185 -14.579120636 -7.0565943133e-06 0.060281399637 -7.6846437454 -1.5471377992e-05
          9.4784708023 -16.84693718 0.44961109757 -0.027615576982 -1.8877315521 -0.047059364617
          3.6518013477 -14.648302078 0.35728558898 0.025384891778 -4.4034423828 -1.9245602743e-05
          0.027025649324 -5.925447464 0.011813533492 5.3423733711 -16.539228439 -2.1339459636e-05
          14.460835457 -19.406734467 -0.5605930686 0 0 0
          -0.37397369742 -11.152545929 0.39972093701 2.2632932663 -14.622205734 0.16848646104
          0 0 0 12.341651917 -19.14125061 -0.50448018312
          -0.32852104306 -11.246920586 -0.038608036935 0.057485852391 -7.6662559509 0.018808346242
          -0.046318013221 -0.83749717474 0.063255183399 -0.10124446452 -13.008086205 -0.35059723258
          14.460741043 -19.448074341 -0.27980130911 7.4946112633 -16.67035675 0.40153038502
          12.341845512 -19.182468414 -0.25203901529 -0.02571756579 -0.858715415 0.025783536956
          -0.11678117514 -9.4064588547 0.098588943481 -0.26444849372 -11.334887505 -0.1413949281
          -0.0092442091554 -3.0293054581 -0.053010888398 4.0994033813 -16.563411713 -0.36221006513
          0.025610368699 -4.3903417587 -0.025780063123 0.77963411808 -12.755699158 0.35769641399
          0.07663628459 -5.8643746376 0.036182411015 5.5091896057 -16.575286865 0.19669511914
          -0.089399315417 -13.021966934 -0.1328625083 0.071313560009 -5.9071774483 0.018357267603
          4.0835280418 -16.577423096 -0.16603599489 10.21971035 -18.906661987 -0.45015701652
          14.461661339 -19.461561203 -6.1159604229e-05 -0.048105258495 -1.7984606028 0.08840931952
          0 0 0 10.218818665 -18.946510315 -0.22517864406
          -0.031956184655 -1.8299363852 0.045011829585 12.342346191 -19.196016312 -5.5279157095e-05
          1.050745368 -14.615464211 -0.30896839499 -0.11561905593 -11.348912239 -1.5199092331e-06
          -0.076432995498 -13.009202003 -1.0205649232e-05 0.085663855076 -9.4498920441 -0.050282690674
          -0.023789068684 -0.86451292038 -6.3061665969e-06 1.0361762047 -14.626806259 -0.15377394855
          4.0596728325 -16.58562851 -1.9824639821e-05 0.10067373514 -9.5110454559 -0.023952038959
          0.073102243245 -5.9201383591 -2.4423550713e-05 2.3362715244 -14.648742676 0.36533609033
          10.218040466 -18.960849762 -4.6633154852e-05 0.061887416989 -7.6201257706 0.025972468778
          -0.026848899201 -1.8397779465 -1.346949648e-05 8.1115865707 -18.709241867 -0.40187093616
          14.46071434 -19.44808197 0.27967849374 0.98771500587 -14.603313446 -5.7456391005e-06
          -0.024558039382 -2.9109456539 0.1054469049 0.028981039301 -4.3497657776 -0.051797710359
          0.11680556834 -9.5405950546 -1.8950000594e-05 5.6015868187 -16.579919815 0.36731305718
          0 0 0 8.1004371643 -18.741102219 -0.20704980195
          -0.016538185999 -2.9495930672 0.052852924913 12.341812134 -19.182476044 0.25192770362
          -0.26445758343 -11.334906578 0.14138506353 -0.089366622269 -13.022008896 0.13286304474
          -0.025718120858 -0.85871565342 -0.025795632973 4.0835313797 -16.577451706 0.16599929333
          0.071312062442 -5.9071784019 -0.018405204639 10.218770981 -18.946512222 0.22508269548
          8.083067894 -18.753101349 -3.5105149436e-05 2.7702505589 -16.566482544 -0.33480268717
          0.13593813777 -7.5499339104 0.015935515985 -0.013628399931 -2.9623057842 -2.0708543161e-05
          -0.03195765987 -1.8299372196 -0.045038364828 0.14691518247 -7.6005544662 0.0064215487801
          1.0361903906 -14.626824379 0.15376615524 2.7286839485 -16.557697296 -0.15467730165