<?xml version="1.0"?>
<VTKFile type="UnstructuredGrid" version="0.1" byte_order="LittleEndian" header_type="UInt32" compressor="vtkZLibDataCompressor">
  <UnstructuredGrid>
    <Piece NumberOfPoints="6405" NumberOfCells="4800">
      <PointData>
        <DataArray type="Float32" Name="DISPLACEMENT" NumberOfComponents="3" ComponentName0="X-DISPLACEMENT" ComponentName1="Y-DISPLACEMENT" ComponentName2="Z-DISPLACEMENT" format="ascii" RangeMin="0" RangeMax="246.03365196">
          0 0 0 0 0 0
          1.9688180685 -1.1962198019 -0.9132578373 0 0 0
          1.2797887325 -0.70142441988 -0.71122342348 0 0 0
          1.7960305214 -1.3191491365 -0.36362296343 1.1128828526 -0.80323284864 -0.29012796283
          0 0 0 3.5378649235 -2.1791572571 -0.94077783823
          0 0 0 3.4856848717 -2.3254122734 -0.48584488034
          2.5716207027 -1.7800133228 -0.7862534523 0 0 0
          0 0 0 1.8021218777 -1.3614774942 7.7879673199e-07
          0.93895256519 -0.46862736344 -0.55011183023 1.1084065437 -0.8241019249 4.2499891606e-07
          2.5158486366 -1.8968495131 -0.40148627758 0.80654478073 -0.56360429525 -0.22316670418
          3.4463965893 -2.3668117523 1.7147356175e-06 1.8808112144 -1.4460072517 -0.61828315258
          0 0 0 2.4814054966 -1.9356685877 1.0301592965e-06
          1.8241705894 -1.554221034 -0.31707400084 0 0 0
          4.9723553658 -3.4415519238 -0.88732904196 0 0 0
          0.79970866442 -0.58157908916 4.4090089801e-08 0 0 0
          0 0 0 1.7960304022 -1.3191485405 0.36362448335
          3.7898645401 -3.0556492805 -0.7532286644 4.9860157967 -3.549135685 -0.45260134339
          0.65934747458 -0.30166512728 -0.37329018116 1.112883091 -0.80323219299 0.29012879729
          3.8014366627 -3.1569833755 -0.38391205668 0.57862812281 -0.40375635028 -0.15475875139
          1.7947076559 -1.5833008289 2.7291991955e-07 3.4856848717 -2.3254110813 0.48584833741
          0 0 0 0 0 0
          1.2945837975 -1.2280341387 -0.43811136484 2.8410077095 -2.7487642765 -0.62112689018
          4.9735341072 -3.5883038044 2.8419176488e-06 2.5158491135 -1.8968482018 0.40148839355
          2.8340220451 -2.8451628685 -0.31539276242 0.80654501915 -0.56360352039 0.22316682339
          3.792662859 -3.1909651756 1.8032612843e-06 1.2383432388 -1.3335465193 -0.22442539036
          0.5905187726 -0.41818609834 -4.4924675535e-07 0 0 0
          6.3133153915 -4.8783335686 -0.79948157072 0 0 0
          4.948123455 -4.5228509903 -0.69680708647 1.8241711855 -1.5542196035 0.31707459688
          6.348282814 -4.9585638046 -0.4046216011 1.9688186646 -1.196218729 0.91325938702
          0 0 0 0 0 0
          1.2193710804 -1.3601372242 -5.6468405774e-07 2.8246126175 -2.8750796318 6.8847424473e-07
          0.23128293455 -0.19704371691 -0.1675721705 4.9794850349 -4.6021947861 -0.35151427984
          1.279789567 -0.70142304897 0.71122443676 1.9802262783 -2.541782856 -0.48655846715
          0 0 0 4.9860162735 -3.5491337776 0.45260703564
          0.18173387647 -0.32189527154 -0.084340080619 1.9547274113 -2.6293447018 -0.24787321687
          3.8014373779 -3.1569812298 0.38391569257 0.57862836123 -0.40375551581 0.15475793183
          3.7826552391 -4.2343997955 -0.59538137913 0.49258255959 -1.0960611105 -0.27341744304
          6.3493270874 -4.9866394997 4.1085777411e-06 3.5378661156 -2.1791546345 0.94078141451
          0 0 0 0 0 0
          3.7967505455 -4.3120589256 -0.30029910803 2.5716221333 -1.780010581 0.78625565767
          4.984231472 -4.6297307014 2.7206299364e-06 0.43602621555 -1.1967830658 -0.14333386719
          0.93895310163 -0.46862575412 0.55011206865 0.20697110891 -0.35300216079 -1.0740360494e-06
          1.9451936483 -2.6576058865 -4.9713770522e-07 2.8340227604 -2.8451607227 0.31539419293
          1.2383438349 -1.3335450888 0.22442431748 3.7977073193 -4.338435173 1.2550940482e-06
          1.8808122873 -1.4460042715 0.61828386784 0.42912450433 -1.2269853354 -1.4250520053e-06
          2.7030551434 -4.0255622864 -0.49784860015 6.3482832909 -4.9585609436 0.40462982655
          4.9723567963 -3.4415478706 0.88733488321 0 0 0
          7.549487114 -6.4549531937 -0.72412246466 0 0 0
          0 0 0 0.99478346109 -2.3974568844 -0.39509510994
          2.7023186684 -4.0998868942 -0.25159114599 7.5848164558 -6.5151391029 -0.36383983493
          6.0388026237 -6.123758316 -0.64518284798 4.9794855118 -4.6021924019 0.35151973367
          0.0489760153 -0.35613954067 -0.18249619007 0 0 0
          3.7898664474 -3.055644989 0.75323241949 0.65934753418 -0.30166333914 0.37328949571
          0.9603779912 -2.4712059498 -0.19123895466 0.18173441291 -0.32189422846 0.084338113666
          -0.019007442519 -0.40648049116 -0.067479811609 1.9547282457 -2.629342556 0.24787227809
          6.0710101128 -6.1859312057 -0.32329672575 3.7967514992 -4.3120560646 0.30030164123
          2.6998496056 -4.1265997887 -2.722706256e-07 7.5910234451 -6.5363941193 5.493864137e-06
          0.20588448644 -1.2644666433 -0.31427010894 0.43602725863 -1.1967813969 0.14333108068
          0 0 0 4.6993832588 -5.8465509415 -0.56486928463
          1.2945845127 -1.2280310392 0.43811044097 2.84100914 -2.748759985 0.6211284399
          0.9503544569 -2.4975895882 -1.7535370489e-06 6.0793881416 -6.2075023651 3.7581994548e-06
          0.0037396221887 -0.47013157606 -2.4344428766e-06 0.19527354836 -1.3071485758 -0.12910614908
          4.7188434601 -5.9095320702 -0.28343173862 6.3133177757 -4.8783283234 0.79948985577
          0 0 0 1.6579458714 -3.8592290878 -0.41306114197
          4.9481258392 -4.5228452682 0.6968125701 0.20155626535 -1.3541272879 -3.1719521303e-06
          1.6472982168 -3.9340219498 -0.20144590735 4.7239456177 -5.9313278198 1.9289909687e-06
          0.23128329217 -0.19704169035 0.16757048666 2.702319622 -4.0998840332 0.25159060955
          3.4586982727 -5.6227669716 -0.4831251204 7.5848169327 -6.5151357651 0.36385083199
          0.43978914618 -2.4215137959 -0.29109579325 1.9802275896 -2.541778326 0.48655763268
          0 0 0 0.96037954092 -2.471203804 0.19123548269
          3.4658620358 -5.68760252 -0.24265168607 -0.019005998969 -0.40647950768 0.067475304008
          0.45107522607 -2.5006124973 -0.14125970006 6.0710105896 -6.1859278679 0.32330423594
          3.7826571465 -4.2343945503 0.59538394213 0.49258378148 -1.0960578918 0.27341485023
          8.6899442673 -8.1332197189 -0.66610074043 0 0 0
          1.6350275278 -3.9562134743 -1.8374990987e-06 7.0638022423 -7.8246302605 -0.60322844982
          8.7192058563 -8.1809959412 -0.33375313878 0 0 0
          0.053771559149 -0.60664409399 -0.12374646217 7.0908937454 -7.8749403954 -0.30134993792
          3.465767622 -5.7092432976 6.0430927817e-08 0.028524279594 -0.64439487457 -0.05178213492
          0.19527517259 -1.3071467876 0.1290999949 0.44248828292 -2.5255084038 -3.4798713386e-06
          4.7188444138 -5.9095292091 0.28343561292 5.5824103355 -7.563937664 -0.53762936592
          -0.072529301047 -1.4773299694 -0.13897408545 8.7260837555 -8.1978378296 6.9726861511e-06
          0 0 0 -0.070312321186 -1.5382552147 -0.08841317147
          5.6007084846 -7.6156301498 -0.26868867874 7.098991394 -7.89245224 4.885276212e-06
          0.029153699055 -0.65842288733 -1.7215190837e-06 2.7030568123 -4.0255565643 0.49784818292
          2.2911376953 -5.439116478 -0.38823544979 7.5494890213 -6.4549465179 0.72413343191
          0 0 0 0.68377405405 -3.7624053955 -0.24147887528
          1.647300005 -3.9340190887 0.20144221187 0.99478554726 -2.3974523544 0.39509183168
          6.0388050079 -6.1237516403 0.64519035816 0.048976704478 -0.35613662004 0.18249200284
          0.6821346879 -3.8574204445 -0.13662257791 2.2862157822 -5.5103878975 -0.1959566623
          3.4658632278 -5.6875991821 0.24265182018 0.4510769248 -2.5006101131 0.14125277102
          5.6063485146 -7.6333556175 2.6836235065e-06 -0.02699788101 -1.5468963385 -4.034307949e-06
          4.2048726082 -7.3595900536 -0.46954646707 -0.17345651984 -2.6038017273 -0.22182503343
          0.20588615537 -1.2644623518 0.31426399946 8.71920681 -8.1809921265 0.33376705647
          4.6993851662 -5.8465442657 0.56487321854 0 0 0
          2.2835862637 -5.5304675102 -1.8118198568e-06 0.67892360687 -3.8749372959 -3.4660224628e-06
          4.2125263214 -7.4110088348 -0.23408047855 7.0908946991 -7.8749365807 0.30135965347
          -0.20542877913 -2.6615655422 -0.096062675118 0.028523499146 -0.64439362288 0.05177860707
          1.657948494 -3.8592231274 0.41305738688 4.214908123 -7.4271764755 4.3254624416e-07
          5.6007094383 -7.6156263351 0.26869404316 -0.070314161479 -1.5382534266 0.088405258954
          -0.19492274523 -2.6872792244 -5.8462705965e-06 9.7524147034 -9.8887357712 -0.62467736006
          0 0 0 9.7745037079 -9.9297332764 -0.31264126301
          3.4587004185 -5.6227602959 0.48312532902 8.0289144516 -9.5996103287 -0.57064628601
          0.43979132175 -2.4215083122 0.2910887599 0.96366757154 -5.3073940277 -0.26266923547
          0.017467347905 -0.77219247818 -0.064508415759 0.68213617802 -3.8574178219 0.13661552966
          2.2862172127 -5.5103850365 0.19595308602 0 0 0
          8.0498380661 -9.6429433823 -0.28452736139 0.95204019547 -5.3890581131 -0.14221359789
          -0.0053875860758 -0.80020844936 -0.026696152985 2.8801968098 -7.2146081924 -0.39490997791
          -0.0089813359082 -3.9537305832 -0.28223624825 8.6899461746 -8.1332120895 0.66611456871
          0 0 0 7.0638046265 -7.8246221542 0.60323810577
          9.780620575 -9.9440860748 8.4963330664e-06 -0.058768257499 -3.9736824036 -0.11152441055
          2.8705177307 -7.2594447136 -0.19896298647 0.053768768907 -0.60664194822 0.12374214083
          6.4179964066 -9.3617839813 -0.51392781734 -0.026658184826 -1.715606451 -0.096483431756
          0 0 0 4.2125272751 -7.411005497 0.23408138752
          -0.20542679727 -2.661563158 0.096051134169 8.0562496185 -9.6578140259 6.0513052631e-06
          0.96157944202 -5.4121136665 -3.6537335291e-06 6.4344387054 -9.4053936005 -0.25573924184
          -0.04977234453 -1.760011673 -0.044155772775 -0.0047576134093 -0.80464988947 -2.0703098471e-06
          5.5824127197 -7.5639300346 0.53763473034 -0.072534546256 -1.4773254395 0.13896726072
          2.8699629307 -7.2729411125 -1.7856449404e-06 -0.038413520902 -4.0110292435 -6.1777645897e-06
          2.2911400795 -5.4391098022 0.38823196292 6.4391851425 -9.4200334549 3.4892545955e-06
          -0.061239235103 -1.7767935991 -4.6362024477e-06 0.68377625942 -3.762399435 0.24147155881
          9.7745027542 -9.929728508 0.31265816092 4.9032011032 -9.194401741 -0.45884698629
          0 0 0 -0.080904476345 -2.8228008747 -0.11703529954
          4.9132065773 -9.2339401245 -0.22759698331 8.0498380661 -9.6429386139 0.28453937173
          -0.0053881471977 -0.80020749569 0.02669207938 0.95204144716 -5.3890547752 0.14220643044
          -0.098156802356 -2.8778662682 -0.056170605123 4.2048745155 -7.359582901 0.46954753995
          1.3983408213 -7.0931663513 -0.35233846307 2.8705193996 -7.2594418526 0.198959589
          -0.17345401645 -2.6037957668 0.22181367874 -0.058765687048 -3.973679781 0.11151241511
          0.25137880445 -5.5034594536 -0.37967294455 1.3705035448 -7.1272935867 -0.16883163154
          4.9154157639 -9.2471513748 8.8353647243e-07 6.4344391823 -9.4053888321 0.25574618578
          -0.049772944301 -1.7600096464 0.044146485627 0.22474016249 -5.4909219742 -0.14782108366
          -0.10900232196 -2.8957688808 -7.0426708589e-06 10.760540009 -11.706766129 -0.59816360474
          0 0 0 0.0026512383483 -0.86542344093 -0.028192691505
          1.3661952019 -7.1400609016 -3.7790211991e-06 3.4528510571 -9.0980701447 -0.41417849064
          8.9458274841 -11.430010796 -0.54607135057 9.752415657 -9.8887262344 0.62469404936
          0 0 0 0 0 0
          0.23669749498 -5.5275640488 -6.6146913014e-06 -0.17383751273 -4.1151194572 -0.11470724642
          10.775864601 -11.745893478 -0.29898115993 3.4533133507 -9.1266841888 -0.20615178347
          8.9607772827 -11.470788956 -0.27179592848 8.0289154053 -9.5996017456 0.57065808773
          -0.0095367897302 -0.88855326176 -0.010852860287 0.96366965771 -5.3073878288 0.26266238093
          0.017464445904 -0.77219074965 0.064503923059 -0.21102795005 -4.1776642799 -0.096770368516
          4.913207531 -9.2339372635 0.22759878635 -0.098157256842 -2.8778634071 0.056156784296
          7.2063560486 -11.2081604 -0.48972728848 2.8801994324 -7.2146019936 0.39490693808
          -0.0089779505506 -3.9537243843 0.28222489357 0 0 0
          -0.0339474231 -1.8555072546 -0.043045084924 10.780964851 -11.759336472 9.9624530776e-06
          -0.012286258861 -0.89511150122 -2.325669584e-06 3.454531908 -9.1394414902 -1.6778558347e-06
          7.2195148468 -11.248101234 -0.24222977459 6.4179978371 -9.3617753983 0.51393467188
          8.9651994705 -11.483937263 7.1563395068e-06 -0.02666121535 -1.7156022787 0.096474327147
          -0.20223109424 -4.1833963394 -8.7227772383e-06 -0.046452511102 -1.8898386955 -0.02012479119
          1.3705066442 -7.1272912025 0.16882441938 0.22474385798 -5.49091959 0.1478086859
          0.59042996168 -7.2202215195 -0.39435011148 7.2212901115 -11.259841919 4.2704350562e-06
          -0.051244426519 -1.9020125866 -5.3136268434e-06 0.60887151957 -7.2291116714 -0.17567028105
          5.5549578667 -11.063539505 -0.43503704667 0 0 0
          -0.095231331885 -3.0003390312 -0.054147616029 10.775862694 -11.745887756 0.29900097847
          -0.0095374090597 -0.88855236769 0.010848253965 3.4533147812 -9.1266813278 0.20614862442
          5.5662107468 -11.097769737 -0.21376040578 4.9032025337 -9.1943941116 0.45884886384
          8.9607772827 -11.470783234 0.27181011438 2.0290796757 -9.0069932938 -0.41248708963
          -0.42973268032 -5.7657051086 -0.40934619308 -0.080907315016 -2.8227951527 0.11702225357
          -0.11143230647 -3.0447564125 -0.026956330985 -0.21102669835 -4.1776618958 0.096752926707
          2.0081152916 -9.0226182938 -0.19296947122 -0.41579601169 -5.7411737442 -0.17933908105
          0.60823607445 -7.2484836578 -6.4251353251e-06 1.398345232 -7.0931611061 0.3523324132
          7.21951437 -11.248096466 0.24223820865 0.25138342381 -5.5034527779 0.37966156006
          5.5644102097 -11.108556747 1.3328116211e-06 -0.046453796327 -1.8898370266 0.020114174113
          -0.1158285141 -3.0597288609 -8.3438717411e-06 1.9853605032 -9.0259208679 -3.7624618017e-06
          -0.3734369278 -5.7419643402 -1.0967320122e-05 -0.1828225255 -4.3486876488 -0.086573660374
          4.009534359 -10.982995987 -0.39895471931 10.760540009 -11.706754684 0.59818303585
          0 0 0 0.60887563229 -7.2291092873 0.17565788329
          0.0026478697546 -0.86542165279 0.028187470511 -0.19627963006 -4.3975162506 -0.042331755161
          3.4528529644 -9.0980634689 0.41417577863 8.9458274841 -11.430000305 0.54608511925
          4.0167803764 -11.00925827 -0.19552746415 11.739660263 -13.587422371 -0.58439195156
          0 0 0 -0.17383696139 -4.1151132584 0.11469164491
          11.748688698 -13.628107071 -0.29167744517 -0.016855334863 -0.91237044334 0.0011142441072
          9.8327064514 -13.314047813 -0.52883815765 5.5662107468 -11.097765923 0.21376305819
          0 0 0 -0.11143352091 -3.0447542667 0.026939857751
          9.842338562 -13.355950356 -0.26289400458 -0.018571579829 -0.93205899 0.001026806538
          2.0081202984 -9.0226163864 0.19296203554 -0.41579058766 -5.7411723137 0.17932139337
          7.2063560486 -11.208150864 0.48973545432 -0.19941534102 -4.4138641357 -1.0994789591e-05
          4.0114412308 -11.01987648 -1.5305164425e-06 -0.033952243626 -1.8555039167 0.043034587055
          0.88379669189 -8.9813575745 -0.31637722254 -0.049716249108 -1.9348168373 -0.0027827057056
          7.9633669853 -13.091836929 -0.46801137924 -0.1965624094 -7.4664306641 -0.38086026907
          11.752325058 -13.641616821 1.118266573e-05 0 0 0
          0.90463590622 -9.0237531662 -0.17340895534 9.8456554413 -13.368889809 8.0301688286e-06
          -0.019259367138 -0.93783795834 -2.5909009764e-06 7.9702749252 -13.129670143 -0.23024445772
          -0.053671948612 -1.9643086195 -0.00019134022295 -0.18451423943 -7.4747915268 -0.17577196658
          0.59043496847 -7.2202148438 0.39433804154 0.90946382284 -9.0235080719 -5.735895229e-06
          -0.22679331899 -5.8573293686 -0.090435743332 -0.196280092 -4.3975133896 0.042310293764
          2.6258571148 -10.916672707 -0.37192821503 7.9688048363 -13.136303902 4.8779133976e-06
          5.5549578667 -11.063530922 0.43503960967 4.0167818069 -11.009255409 0.19552445412
          -0.15809823573 -7.4804620743 -1.0043208931e-05 -0.055258415639 -1.97450912 -5.9736053117e-06
          -0.095235824585 -3.0003342628 0.054131798446 11.74868679 -13.628100395 0.2916996181
          6.1720166206 -12.954421043 -0.39988431334 -0.24463300407 -5.9289560318 -0.068278677762
          -0.093471758068 -3.106167078 -0.0078636957332 2.6255989075 -10.940201759 -0.18279154599
          2.0290868282 -9.0069885254 0.41247993708 -0.42972812057 -5.7656979561 0.40932837129
          0 0 0 -0.098615139723 -3.1428751945 -0.0024865921587
          9.8423366547 -13.355944633 0.26290985942 -0.018572436646 -0.93205839396 -0.0010319504654
          6.1654076576 -12.983408928 -0.19169224799 -0.254704386 -5.9273381233 -1.2669864191e-05
          2.6147542 -10.946033478 -4.1484886424e-06 0.90463906527 -9.0237522125 0.17339731753
          6.1474905014 -12.98555851 1.7166896669e-06 -0.10129445791 -3.1558942795 -9.5659852377e-06
          7.9702730179 -13.129665375 0.23025402427 -0.053673688322 -1.9643074274 0.0001793782867
          -0.18450914323 -7.4747900963 0.17575259507 -0.18282549083 -4.3486814499 0.086553126574
          4.0095362663 -10.982989311 0.39895200729 4.5406913757 -12.893831253 -0.35820299387
          11.739657402 -13.587409973 0.58441346884 0 0 0
          -0.1344781816 -4.4467773438 -0.0097436457872 -0.016859410331 -0.91236913204 -0.0011200944427
          9.8327045441 -13.314036369 0.52885335684 -0.24463227391 -5.9289541245 0.068252921104
          2.6256022453 -10.940200806 0.18278354406 4.5272197723 -12.915506363 -0.16584029794
          0.064417302608 -9.2381381989 -0.38564604521 -0.14323283732 -4.4923353195 -0.0054775383323
          -0.098617114127 -3.142873764 0.0024676723406 6.1654062271 -12.983405113 0.19169552624
          0.050861585885 -9.2257966995 -0.15500001609 1.1978476048 -10.835741997 -0.30999287963
          -0.36005908251 -7.5029129982 -0.070867687464 12.708836555 -15.544692039 -0.57960033417
          0 0 0 10.706814766 -15.269962311 -0.52019530535
          0.88380140066 -8.9813528061 0.31636455655 -0.049722205848 -1.9348144531 0.002770771971
          7.9633646011 -13.091825485 0.46802040935 -0.37923580408 -7.5888929367 -0.11294743419
          1.1949851513 -10.87067318 -0.15426807106 -0.19655624032 -7.4664244652 0.38084229827
          12.712974548 -15.58770752 -0.28898844123 0 0 0
          -0.14675813913 -4.5073318481 -1.2905866242e-05 4.5011844635 -12.923909187 -1.6310069668e-06
          -0.036409065127 -0.9240732193 0.02722337842 10.710783958 -15.313867569 -0.25905063748
          -0.02892382443 -0.94249242544 0.011475436389 0.078716725111 -9.2507390976 -1.1025916137e-05
          8.71296978 -15.034910202 -0.45614621043 -0.33303782344 -7.5916838646 -1.4539774384e-05
          1.2019866705 -10.886575699 -6.9006787271e-06 12.715254784 -15.601700783 1.1868537513e-05
          0 0 0 -0.064270585775 -1.9533261061 0.034615583718
          8.7178134918 -15.075458527 -0.22485564649 10.712425232 -15.327484131 8.408267604e-06
          -0.2267934978 -5.8573226929 0.090411655605 2.6258616447 -10.916667938 0.37192037702
          -0.028641650453 -0.94777876139 -2.8455488064e-06 -0.059931822121 -1.9807792902 0.018192315474
          6.1720142365 -12.95441246 0.39988711476 -0.093478024006 -3.1061635017 0.0078453766182
          -0.18725690246 -5.964609623 -0.015571561642 3.0964167118 -12.877218246 -0.34420409799
          -0.14323437214 -4.4923334122 0.0054520545527 4.5272197723 -12.915504456 0.1658372581
          -0.19849862158 -6.0184102058 -0.0094808861613 3.088958025 -12.881611824 -0.165850088
          0.050869058818 -9.2257966995 0.15498022735 8.7210350037 -15.084545135 5.1065944717e-06
          -0.058605019003 -1.9899756908 -6.5686349444e-06 6.7548828125 -14.878138542 -0.38999611139
          -0.37923175097 -7.5888915062 0.11291948706 1.1949888468 -10.870670319 0.15425537527
          12.712970734 -15.587700844 0.28901189566 0 0 0
          -0.084483914077 -3.1239123344 0.038342915475 6.7126860619 -14.898562431 -0.19064798951
          10.710780144 -15.313860893 0.25906714797 -0.084132097661 -3.158149004 0.020200461149
          -0.19797459245 -6.0386829376 -1.5875413737e-05 3.0790932178 -12.884661674 -4.8194810915e-06
          -0.02892478928 -0.94249212742 -0.011481079273 8.7178087234 -15.075452805 0.22486552596
          6.6645789146 -14.888557434 1.7963793653e-06 -0.084262564778 -3.1697759628 -1.0578541151e-05
          4.5406913757 -12.893825531 0.35820022225 0.35551917553 -11.071899414 -0.41337314248
          -0.059933826327 -1.9807788134 -0.018205469474 -0.13448344171 -4.4467730522 0.0097193326801
          -0.72260576487 -9.5137443542 -0.40899294615 0.35906347632 -11.052279472 -0.15544019639
          0.064426466823 -9.2381334305 0.38562855124 -0.69025349617 -9.4897451401 -0.19270931184
          -0.19849886 -6.0184087753 0.0094497893006 3.0889611244 -12.881612778 0.16584119201
          1.1978529692 -10.835737228 0.30998322368 -0.36005458236 -7.5029063225 0.070841729641
          -0.098419621587 -4.4644532204 0.037856467068 5.0121130943 -14.841995239 -0.3405020237
          12.708830833 -15.544677734 0.57962292433 0 0 0
          10.706809998 -15.269948959 0.52021098137 -0.10155350715 -4.5032706261 0.020268253982
          0.3537119627 -11.076681137 -1.1644481674e-05 -0.26362428069 -7.6871972084 -0.050520528108
          1.6870402098 -12.853549957 -0.37417849898 4.9309258461 -14.838324547 -0.16712011397
          -0.036413569003 -0.92407250404 -0.027229787782 -0.40529111028 -9.4416913986 -1.3920401216e-05
          6.7126808167 -14.898558617 0.19065132737 -0.084134444594 -3.1581485271 -0.020221387967
          1.6320140362 -12.829268456 -0.16608087718 -0.26646921039 -7.741625309 -0.02556639351
          8.7129640579 -15.034898758 0.45615521073 -0.102693066 -4.517455101 -1.4450605704e-05
          4.8261146545 -14.820059776 -1.9449869342e-06 -0.064277306199 -1.9533247948 -0.03462869674
          1.5742821693 -12.804245949 -6.7263672463e-06 13.676339149 -17.594543457 -0.57905203104
          0 0 0 -0.25450530648 -7.7487354279 -1.811286711e-05
          13.677145004 -17.638437271 -0.28884279728 0 0 0
          0.35907420516 -11.052280426 0.15541990101 11.576729774 -17.318782806 -0.51923543215
          -0.18725988269 -5.9646043777 0.015541952103 3.0964202881 -12.877216339 0.34419694543
          -0.05555254221 -0.90335267782 0.053098410368 -0.69024318457 -9.4897480011 0.19268219173
          11.577524185 -17.363157272 -0.2592895329 -0.038884725422 -0.92197430134 0.022108694538
          6.7548751831 -14.878129959 0.38999864459 13.677856445 -17.652793884 1.1650013221e-05
          -0.1015554592 -4.5032701492 -0.020296700299 9.4738826752 -17.073074341 -0.45841416717
          -0.078910090029 -1.9125579596 0.072805851698 4.9309253693 -14.838323593 0.16711640358
          0 0 0 3.5347859859 -14.842282295 -0.35623514652
          -0.10390836746 -5.991147995 0.030782997608 -0.084491148591 -3.1239106655 -0.038363166153
          -0.067060530186 -1.9402166605 0.03697257489 9.4719791412 -17.118490219 -0.22895261645
          11.578601837 -17.377605438 7.9444735093e-06 1.6320260763 -12.82927227 0.16606831551
          -0.1088520661 -6.0326151848 0.016473222524 3.5184326172 -14.834667206 -0.17665302753
          -0.26646745205 -7.7416238785 0.025530794635 -0.037723232061 -0.92705488205 -3.0792521102e-06
          -0.48716071248 -11.338252068 -0.40332609415 9.4721870422 -17.134887695 4.5810170377e-06
          0.35553133488 -11.071894646 0.41335624456 -0.063125766814 -1.9492021799 -7.0360079008e-06
          -0.10934693366 -6.048014164 -1.8007285689e-05 -0.44376650453 -11.337670326 -0.17247760296
          3.5017783642 -14.828475952 -4.7004750741e-06 -0.72259527445 -9.5137395859 0.40896880627
          13.677139282 -17.638429642 0.28886574507 7.3401389122 -16.86964798 -0.40163058043
          -0.2891061008 -9.5144443512 -0.046633761376 0 0 0
          -0.082525573671 -3.0640623569 0.083130843937 0.64627045393 -12.937898636 -0.34218323231
          -0.076917052269 -3.0981373787 0.042880486697 7.3302955627 -16.90580368 -0.20483514667
          11.577518463 -17.363149643 0.25930503011 -0.2818826139 -9.5920829773 -0.057370129973
          0.66975736618 -12.948457718 -0.17558710277 -0.038885675371 -0.92197442055 -0.022114776075
          -0.098426096141 -4.4644508362 -0.037883620709 5.0121107101 -14.841989517 0.34049895406
          -0.42277789116 -11.314445496 -1.6837369913e-05 -0.26362371445 -7.6871914864 0.050487022847
          1.6870567799 -12.853552818 0.37416833639 7.3229618073 -16.914171219 1.5026757865e-06
          9.4719724655 -17.118484497 0.22896134853 -0.31050845981 -9.5856666565 -1.9828708901e-05
          -0.067062519491 -1.9402170181 -0.036986622959 -0.075042769313 -3.1091370583 -1.12559228e-05
          -0.10885298252 -6.0326142311 -0.016508644447 3.5184361935 -14.834667206 0.17664401233
          0.65862411261 -12.928963661 -9.3859562185e-06 2.2405998707 -14.8201828 -0.361140728
          -0.090562544763 -7.6937465668 0.024423986673 2.2040867805 -14.807548523 -0.17492198944
          -0.096514642239 -7.7406191826 0.0085697239265 13.676328659 -17.594526291 0.57907384634
          0 0 0 -0.44375258684 -11.337675095 0.17244797945
          -0.06629692018 -4.3919305801 0.086412318051 5.3788743019 -16.769321442 -0.35120877624
          -0.066518567502 -4.4298257828 0.043943654746 11.576719284 -17.318767548 0.51924973726
          -0.055557206273 -0.90335273743 -0.053105220199 5.3074221611 -16.769742966 -0.19834972918
          7.3302855492 -16.905797958 0.20483753085 -0.28187811375 -9.5920829773 0.05733108148
          -0.076919317245 -3.0981378555 -0.042902708054 0.66976726055 -12.948461533 0.17556986213
          2.1534540653 -14.783141136 -6.6746788434e-06 -0.098089367151 -7.7565846443 -2.1330695745e-05
          9.4738712311 -17.073060989 0.45842164755 -0.078916981816 -1.9125580788 -0.072819769382
          3.5347914696 -14.842279434 0.35622739792 -0.066314995289 -4.4420151711 -1.5271163647e-05
          -0.10391294956 -5.991145134 -0.030816461891 5.1750230789 -16.736478806 -1.7377137738e-06
          14.641933441 -19.743513107 -0.57911282778 0 0 0
          -0.48714464903 -11.338249207 0.40329879522 2.2040982246 -14.80755043 0.17490924895
          0 0 0 12.446694374 -19.467884064 -0.5212828517
          -0.49272161722 -11.344524384 -0.0055204210803 -0.096513703465 -7.7406191826 -0.0086114248261
          -0.070576310158 -0.84846651554 0.081351667643 -0.19811789691 -13.182439804 -0.35380166769
          14.641677856 -19.786626816 -0.28928443789 7.3401236534 -16.869638443 0.40163174272
          12.445747375 -19.51130867 -0.26082983613 -0.044799283147 -0.86811262369 0.033372893929
          -0.28910025954 -9.5144395828 0.046596515924 -0.46580296755 -11.448239326 -0.11316569149
          -0.082532890141 -3.0640628338 -0.083152234554 3.9753148556 -16.744405746 -0.35635885596
          -0.066520355642 -4.4298262596 -0.043973725289 0.64628303051 -12.937898636 0.342163831
          -0.038614500314 -5.9096088409 0.07807649672 5.3074188232 -16.769742966 0.19834561646
          -0.19724932313 -13.19338131 -0.13193500042 -0.042125020176 -5.9494614601 0.041005551815
          3.9825408459 -16.75320816 -0.16433303058 10.244464874 -19.217388153 -0.46526378393
          14.641579628 -19.800895691 1.0121005289e-05 -0.091006882489 -1.815980196 0.11199107766
          0 0 0 10.242401123 -19.262310028 -0.23377868533
          -0.071179695427 -1.84496665 0.057097777724 12.44572258 -19.526212692 6.2355911723e-06
          0.92873573303 -14.760737419 -0.31216207147 -0.3468182981 -11.466536522 -2.0349811166e-05
          -0.19033797085 -13.188606262 -1.6264561054e-05 -0.088543258607 -9.5314083099 0.0062726931646
          -0.042584046721 -0.87339198589 -3.2659481803e-06 0.91015672684 -14.774913788 -0.14393766224
          3.9854533672 -16.756847382 -4.8808715292e-06 -0.082880042493 -9.5919828415 0.0090601528063
          -0.0415898785 -5.9608306885 -1.9160297597e-05 2.2406122684 -14.820181847 0.36112812161
          10.242292404 -19.279056549 2.921897476e-06 -0.090564027429 -7.6937441826 -0.024463284761
          -0.064683504403 -1.8538769484 -7.3245792009e-06 8.0040817261 -18.984273911 -0.40791258216
          14.641669273 -19.786619186 0.28930425644 0.88024568558 -14.775017738 -9.3970456874e-06
          -0.083387441933 -2.9335551262 0.13237866759 -0.066303275526 -4.3919315338 -0.086440891027
          -0.071118116379 -9.6200246811 -2.4071241569e-05 5.3788700104 -16.769319534 0.35120436549
          0 0 0 8.013666153 -19.031806946 -0.20786684752
          -0.072833746672 -2.9687120914 0.066771663725 12.445738792 -19.511301041 0.26084184647
          -0.46579426527 -11.448241234 0.11312475055 -0.19723342359 -13.193386078 0.13190713525
          -0.044800043106 -0.86811333895 -0.033379297704 3.9825456142 -16.753210068 0.1643242538
          -0.04212570563 -5.9494628906 -0.041042920202 10.242390633 -19.262304306 0.23378396034
          8.0288162231 -19.053638458 1.0835677955e-07 2.6809024811 -16.740037918 -0.33203873038
          0.0082045290619 -7.5991344452 0.064957730472 -0.068906918168 -2.9801640511 -1.1534160876e-05
          -0.071181304753 -1.8449679613 -0.057112365961 0.01237728633 -7.643362999 0.0360192433
          0.91016787291 -14.774914742 0.14391969144 2.6561205387 -16.723152161 -0.14935711026