<?xml version="1.0"?>
<VTKFile type="UnstructuredGrid" version="0.1" byte_order="LittleEndian" header_type="UInt32" compressor="vtkZLibDataCompressor">
  <UnstructuredGrid>
    <Piece NumberOfPoints="6405" NumberOfCells="4800">
      <PointData>
        <DataArray type="Float32" Name="DISPLACEMENT" NumberOfComponents="3" ComponentName0="X-DISPLACEMENT" ComponentName1="Y-DISPLACEMENT" ComponentName2="Z-DISPLACEMENT" format="ascii" RangeMin="0" RangeMax="491.15823613">
          0 0 0 0 0 0
          2.7779855728 -1.5497279167 -1.3139936924 0 0 0
          1.8236870766 -0.83667355776 -1.0113942623 0 0 0
          2.5225954056 -1.7376238108 -0.52733099461 1.579906702 -0.99946963787 -0.41249120235
          0 0 0 5.0877623558 -2.837613821 -1.4054086208
          0 0 0 4.9960408211 -3.0810379982 -0.7228551507
          3.6799566746 -2.246297121 -1.1358170509 0 0 0
          0 0 0 2.5331096649 -1.8033370972 3.6108754875e-12
          1.2775205374 -0.51239609718 -0.75451332331 1.5722693205 -1.0350282192 1.969512553e-08
          3.5880563259 -2.4484164715 -0.57902234793 1.0973063707 -0.66607123613 -0.306091398
          4.9411206245 -3.1513593197 8.1956905262e-08 2.5486338139 -1.7815628052 -0.84865689278
          0 0 0 3.5369787216 -2.5153183937 1.0854277832e-07
          2.4713094234 -1.9717968702 -0.43469831347 0 0 0
          7.2895650864 -4.6158432961 -1.3766516447 0 0 0
          1.0893616676 -0.69709151983 2.4288240752e-08 0 0 0
          0 0 0 2.5225954056 -1.7376238108 0.52733099461
          5.4679946899 -4.0225057602 -1.1104472876 7.2900938988 -4.8230643272 -0.69940549135
          0.78863376379 -0.33412101865 -0.48135775328 1.5799068213 -0.99946963787 0.41249126196
          5.4691505432 -4.2203617096 -0.56504303217 0.67759019136 -0.48815146089 -0.19835810363
          2.4294018745 -2.0267429352 1.1952511159e-07 4.9960412979 -3.0810379982 0.72285532951
          0 0 0 0 0 0
          1.5683580637 -1.5192862749 -0.55399751663 3.8711056709 -3.5660860538 -0.84594166279
          7.270740509 -4.8956346512 2.3007393679e-07 3.5880565643 -2.4484167099 0.57902258635
          3.8597536087 -3.7577130795 -0.42914372683 1.0973063707 -0.66607123613 0.30609145761
          5.4527430534 -4.2854738235 2.5716207119e-07 1.5097303391 -1.7048854828 -0.2821393609
          0.68195211887 -0.51580911875 2.2590382898e-08 0 0 0
          9.4321489334 -6.7816610336 -1.2915041447 0 0 0
          7.2163071632 -6.2131619453 -1.0526973009 2.4713096619 -1.9717969894 0.4346985817
          9.4639720917 -6.9625267982 -0.65098971128 2.7779855728 -1.5497280359 1.3139938116
          0 0 0 0 0 0
          1.4821121693 -1.7570787668 1.2215635081e-07 3.8444612026 -3.8166856766 2.6975845913e-07
          0.26818600297 -0.27804127336 -0.20739124715 7.2448678017 -6.3914532661 -0.53030025959
          1.823687315 -0.83667361736 1.0113943815 2.3891572952 -3.2732937336 -0.56982189417
          0 0 0 7.2900938988 -4.8230643272 0.69940596819
          0.20318447053 -0.43490183353 -0.089880406857 2.3645963669 -3.45647192 -0.2896592617
          5.4691505432 -4.2203617096 0.56504356861 0.67759031057 -0.48815146089 0.19835816324
          5.1931581497 -5.7695889473 -0.81427961588 0.52873963118 -1.4275302887 -0.27102482319
          9.4622554779 -7.0232477188 4.3764316615e-07 5.0877628326 -2.8376140594 1.4054088593
          0 0 0 0 0 0
          5.2033405304 -5.9447469711 -0.40909913182 3.6799571514 -2.246297121 1.1358172894
          7.2470698357 -6.4506940842 4.6124799269e-07 0.47786593437 -1.6035667658 -0.14031675458
          1.2775207758 -0.51239609718 0.75451344252 0.2036934495 -0.4687409997 1.9065675261e-08
          2.3481528759 -3.5105037689 2.6961299682e-07 3.8597538471 -3.7577130795 0.42914426327
          1.5097304583 -1.7048854828 0.28213959932 5.201397419 -6.0006899834 4.7082485821e-07
          2.5486342907 -1.7815628052 0.8486571908 0.45852860808 -1.6569963694 1.1333195005e-07
          3.2522060871 -5.4758629799 -0.57338255644 9.4639720917 -6.9625267982 0.65099054575
          7.2895655632 -4.6158432961 1.3766522408 0 0 0
          11.48314476 -9.3183679581 -1.213612318 0 0 0
          0 0 0 0.86936175823 -3.1519548893 -0.31698518991
          3.2424840927 -5.6415576935 -0.28849008679 11.51835537 -9.4762563705 -0.60769033432
          8.9053192139 -8.7740707397 -1.0014537573 7.2448682785 -6.3914532661 0.53030121326
          -0.18263304234 -0.38895657659 0.03898730129 0 0 0
          5.4679951668 -4.0225057602 1.1104477644 0.78863400221 -0.33412101865 0.48135787249
          0.83278554678 -3.3195676804 -0.16227948666 0.20318457484 -0.43490177393 0.089880466461
          -0.21524369717 -0.53517276049 0.016482200474 2.3645968437 -3.45647192 0.28965982795
          8.9361772537 -8.9322519302 -0.50127387047 5.2033410072 -5.9447469711 0.4091000855
          3.2367889881 -5.6940011978 4.6739978643e-07 11.523107529 -9.5289869308 6.9945627956e-07
          -0.35447308421 -1.5332881212 -0.038012754172 0.47786614299 -1.6035667658 0.140316993
          0 0 0 6.4948468208 -8.3471317291 -0.7902072072
          1.5683585405 -1.5192862749 0.55399781466 3.8711063862 -3.5660860538 0.84594225883
          0.81780850887 -3.3714375496 2.5688621008e-07 8.9435873032 -8.9844207764 7.1774945809e-07
          -0.23072144389 -0.57183802128 1.2747691791e-08 -0.41379067302 -1.6905878782 -0.015754548833
          6.5075750351 -8.5020656586 -0.39426085353 9.4321489334 -6.7816610336 1.2915050983
          0 0 0 1.3014668226 -5.3349924088 -0.35774156451
          7.2163081169 -6.2131624222 1.0526982546 -0.43326851726 -1.7444177866 9.4668877182e-08
          1.2741760015 -5.4827756882 -0.1801674813 6.5106267929 -8.5521011353 7.215687674e-07
          0.26818621159 -0.27804118395 0.20739136636 3.2424845695 -5.6415576935 0.28849104047
          4.1447119713 -8.0549688339 -0.58080130816 11.51835537 -9.4762563705 0.60769176483
          -0.4340518713 -3.2360854149 -0.12479101866 2.3891577721 -3.2732937336 0.56982249022
          0 0 0 0.8327858448 -3.3195676804 0.1622800082
          4.1369438171 -8.1991405487 -0.29002574086 -0.21524360776 -0.53517270088 -0.016482159495
          -0.4962824285 -3.3707077503 -0.05814909935 8.9361782074 -8.9322519302 0.50127530098
          5.1931591034 -5.7695889473 0.81428056955 0.52874004841 -1.4275302887 0.27102509141
          13.43435955 -12.183936119 -1.1482714415 0 0 0
          1.2655557394 -5.5323371887 4.5188878062e-07 10.530768394 -11.664043427 -0.96039915085
          13.465373039 -12.323487282 -0.57372760773 0 0 0
          -0.56666952372 -0.57182747126 0.26395434141 10.557605743 -11.803931236 -0.47963646054
          4.1338400841 -8.2456159592 7.1366849852e-07 -0.58427876234 -0.71244668961 0.10876471549
          -0.4137904942 -1.690587759 0.015754757449 -0.51786375046 -3.4167678356 2.3350905565e-07
          6.5075755119 -8.5020656586 0.39426228404 7.7718453407 -11.251145363 -0.77373737097
          -1.0490509272 -1.7990416288 0.14264266193 13.470970154 -12.36978054 1.0178240473e-06
          0 0 0 -1.1284338236 -1.9372774363 0.07976526022
          7.7827339172 -11.387599945 -0.38534760475 10.565274239 -11.850010872 1.026133873e-06
          -0.62203299999 -0.74992161989 -6.213401349e-09 3.2522068024 -5.4758629799 0.57338356972
          1.8174065351 -7.9009108543 -0.39918535948 11.483145714 -9.3183679581 1.2136137486
          0 0 0 -0.38809326291 -5.3883786201 -0.20746213198
          1.2741764784 -5.4827756882 0.18016839027 0.86936241388 -3.1519546509 0.31698578596
          8.9053211212 -8.7740707397 1.001455307 -0.18263283372 -0.38895648718 -0.038987196982
          -0.44223207235 -5.4991884232 -0.098020270467 1.7928802967 -8.0258436203 -0.19903376698
          4.136944294 -8.1991405487 0.29002717137 -0.49628213048 -3.3707077503 0.058149583638
          7.7863960266 -11.431944847 1.0210668506e-06 -1.1472553015 -1.9897997379 6.8490010108e-08
          5.0612053871 -10.959108353 -0.59178441763 -1.3790166378 -3.5343539715 0.00030811227043
          -0.35447269678 -1.533288002 0.038013014942 13.465373993 -12.323487282 0.57372963428
          6.4948477745 -8.3471317291 0.79020869732 0 0 0
          1.7859222889 -8.0692577362 6.9253508173e-07 -0.45963674784 -5.5404133797 4.2344390749e-07
          5.0551495552 -11.084764481 -0.29507645965 10.557605743 -11.803931236 0.4796385169
          -1.468226552 -3.6260716915 0.011126069352 -0.58427864313 -0.71244663 -0.10876470804
          1.3014676571 -5.3349924088 0.35774254799 5.053715229 -11.125926018 1.0034061688e-06
          7.7827343941 -11.387599945 0.38534966111 -1.1284335852 -1.937277317 -0.079765096307
          -1.4896782637 -3.6583576202 2.0546103485e-07 15.291664124 -15.341085434 -1.094014883
          0 0 0 15.317828178 -15.465366364 -0.54640960693
          4.144712925 -8.0549688339 0.58080279827 12.097270966 -14.842561722 -0.92681306601
          -0.43405127525 -3.2360851765 0.12479155511 -0.21340823174 -7.9303498268 -0.28317427635
          -1.1863287687 -0.86724960804 0.51957452297 -0.44223165512 -5.4991884232 0.098021134734
          1.7928807735 -8.0258436203 0.19903515279 0 0 0
          12.119882584 -14.966970444 -0.46267846227 -0.25725713372 -8.0180110931 -0.13447065651
          -1.2532473803 -1.026461482 0.1984975785 2.4037232399 -10.792052269 -0.43702977896
          -1.5626592636 -5.6863679886 -0.12224039435 13.434360504 -12.183936119 1.148273468
          0 0 0 10.530770302 -11.664043427 0.96040129662
          15.322867393 -15.506546974 1.3895438542e-06 -1.6478774548 -5.7419462204 -0.051466729492
          2.3843626976 -10.897976875 -0.21760131419 -0.5666693449 -0.57182741165 -0.263954252
          9.0267715454 -14.440583229 -0.76107031107 -2.0988483429 -2.1194112301 0.31141072512
          0 0 0 5.0551505089 -11.084764481 0.2950784564
          -1.4682261944 -3.6260716915 -0.01112563815 12.126574516 -15.007935524 1.3858485772e-06
          -0.26951694489 -8.0529079437 6.5874320399e-07 9.0362186432 -14.56139183 -0.37908345461
          -2.2223451138 -2.2373895645 0.15356406569 -1.3663316965 -1.0777921677 -3.5662495179e-08
          7.7718467712 -11.251145363 0.77373945713 -1.0490504503 -1.7990415096 -0.14264243841
          2.3798131943 -10.935584068 9.7340409866e-07 -1.6730142832 -5.7627506256 3.949662073e-07
          1.817407608 -7.9009103775 0.39918678999 9.0396175385 -14.600732803 1.3678402411e-06
          -2.2579455376 -2.2807333469 3.6466975217e-08 -0.38809245825 -5.3883786201 0.20746305585
          15.317829132 -15.465366364 0.54641240835 5.9985032082 -14.146367073 -0.60094952583
          0 0 0 -2.7333848476 -3.8509471416 0.10800462216
          5.9951014519 -14.256902695 -0.29959383607 12.119883537 -14.966970444 0.46268126369
          -1.253247261 -1.0264613628 -0.19849762321 -0.25725662708 -8.0180110931 0.13447199762
          -2.8406543732 -3.901168108 0.052118100226 5.0612068176 -10.959108353 0.59178644419
          0.07040554285 -10.796206474 -0.34439006448 2.3843634129 -10.897976875 0.21760328114
          -1.3790159225 -3.5343537331 -0.0003076166322 -1.6478769779 -5.7419462204 0.05146753788
          -1.6258659363 -8.2188482285 -0.22851915658 0.037115119398 -10.865380287 -0.16509129107
          5.9948291779 -14.293254852 1.3374669834e-06 9.0362195969 -14.56139183 0.37908619642
          -2.2223448753 -2.2373893261 -0.15356397629 -1.6965306997 -8.2459669113 -0.1063112542
          -2.8585786819 -3.9235525131 1.7446554068e-07 17.067453384 -18.756624222 -1.0488249063
          0 0 0 -1.7528084517 -1.3788788319 0.70397531986
          0.028286097571 -10.89424324 9.3515347999e-07 3.0497329235 -13.965560913 -0.46631506085
          13.612736702 -18.275989532 -0.8984991312 15.291665077 -15.341085434 1.0940177441
          0 0 0 0 0 0
          -1.7176514864 -8.258357048 6.2728264538e-07 -3.1356220245 -5.9993066788 -0.068856827915
          17.089490891 -18.868455887 -0.52389287949 3.0365138054 -14.05721283 -0.23203136027
          13.631949425 -18.387779236 -0.44859704375 12.097272873 -14.842561722 0.92681592703
          -1.8641120195 -1.5307539701 0.27242454886 -0.21340721846 -7.9303498268 0.28317567706
          -1.1863285303 -0.86724948883 -0.51957452297 -3.2361850739 -6.0077290535 -0.038312476128
          5.9951019287 -14.256902695 0.29959651828 -2.8406538963 -3.901168108 -0.052117727697
          10.263261795 -17.882139206 -0.74965685606 2.403724432 -10.792052269 0.43703177571
          -1.5626584291 -5.6863679886 0.12224126607 0 0 0
          -2.9481060505 -2.6768586636 0.29215526581 17.093894958 -18.905506134 1.8157418253e-06
          -2.0049562454 -1.6065342426 -6.4610915729e-08 3.0340223312 -14.0900774 1.2967497014e-06
          10.272107124 -17.990449905 -0.37358230352 9.0267734528 -14.440583229 0.76107311249
          13.637680054 -18.424583435 1.7960890091e-06 -2.0988478661 -2.1194112301 -0.3114105463
          -3.2574794292 -6.0221338272 3.6794057223e-07 -3.1228809357 -2.720676899 0.16402746737
          0.037115711719 -10.865380287 0.16509316862 -1.6965302229 -8.2459669113 0.1063125357
          -1.574775219 -11.055754662 -0.31265935302 10.275294304 -18.025743484 1.7624527118e-06
          -3.1537866592 -2.7588410378 1.0480635915e-08 -1.624533534 -11.064979553 -0.14974918962
          6.9530572891 -17.584327698 -0.60644966364 0 0 0
          -3.7113893032 -4.4367785454 -0.044876500964 17.089490891 -18.868455887 0.52389651537
          -1.8641119003 -1.5307538509 -0.27242466807 3.0365145206 -14.05721283 0.23203396797
          6.9524197578 -17.683361053 -0.30239036679 5.9985046387 -14.146367073 0.60095226765
          13.631950378 -18.387779236 0.44860064983 0.44476160407 -13.941339493 -0.38858178258
          -3.3658623695 -8.5387239456 -0.22666981816 -2.7333841324 -3.8509471416 -0.10800418258
          -3.8599448204 -4.3840966225 0.00080946087837 -3.236184597 -6.0077285767 0.038313236088
          0.42255851626 -13.998291969 -0.18769738078 -3.4512376785 -8.509557724 -0.11974363774
          -1.6387599707 -11.073290825 9.0217253046e-07 0.070406734943 -10.796205521 0.34439200163
          10.272108078 -17.990449905 0.37358585 -1.6258648634 -8.2188482285 0.22852049768
          6.9530205727 -17.7159729 1.7167318447e-06 -3.1228806973 -2.7206766605 -0.16402742267
          -3.8809700012 -4.4023370743 1.6239350487e-07 0.41685506701 -14.02252388 1.2505170162e-06
          -3.4724066257 -8.5158195496 6.0431051452e-07 -4.1252279282 -6.5816855431 -0.31800231338
          3.7449884415 -17.389305115 -0.48630356789 17.067455292 -18.756624222 1.0488286018
          0 0 0 -1.6245328188 -11.064979553 0.14975102246
          -1.7528082132 -1.3788787127 -0.70397531986 -4.2527160645 -6.4888854027 -0.13071896136
          3.049734354 -13.965559959 0.46631771326 13.612738609 -18.275987625 0.89850276709
          3.7373354435 -17.471111298 -0.24194632471 18.775161743 -22.404010773 -1.0114358664
          0 0 0 -3.1356210709 -5.9993066788 0.068857654929
          18.793771744 -22.506048203 -0.5052652359 -0.54736220837 -2.2241501808 0.20656387508
          15.084955215 -21.938085556 -0.87430042028 6.9524207115 -17.683361053 0.30239379406
          0 0 0 -3.859944582 -4.3840966225 -0.00080911110854
          15.10142231 -22.039993286 -0.43658849597 -0.65526294708 -2.173252821 0.12163743377
          0.42255923152 -13.998291969 0.18769989908 -3.4512372017 -8.509557724 0.11974487454
          10.263263702 -17.882139206 0.74966049194 -4.2741956711 -6.4996423721 3.7082560311e-07
          3.7363159657 -17.500434875 1.6618380414e-06 -2.9481055737 -2.6768586636 -0.2921551466
          -1.4113066196 -14.156846046 -0.36780023575 -1.2127331495 -4.124774456 -0.31158551574
          11.483787537 -21.550556183 -0.73862498999 -3.4489638805 -11.35984993 -0.34536626935
          18.797704697 -22.539838791 2.2964125037e-06 0 0 0
          -1.4401394129 -14.157316208 -0.17859819531 15.106383324 -22.073532104 2.258163704e-06
          -0.69067162275 -2.2418410778 1.6636214184e-08 11.49237442 -21.649265289 -0.36824226379
          -1.3774852753 -4.0580630302 -0.088042490184 -3.5094506741 -11.312968254 -0.18083405495
          -1.5747740269 -11.055754662 0.31266123056 -1.4486063719 -14.163484573 1.216377882e-06
          -4.2045245171 -9.1313848495 -0.5538559556 -4.2527155876 -6.4888854027 0.13071972132
          0.89755582809 -17.331972122 -0.41582280397 11.495435715 -21.681459427 2.2050326152e-06
          6.9530587196 -17.584327698 0.60645318031 3.7373361588 -17.471111298 0.24194966257
          -3.5274302959 -11.317175865 8.8700778633e-07 -1.4278179407 -4.0484251976 1.5089075589e-07
          -3.711388588 -4.4367785454 0.044876936823 18.793773651 -22.506048203 0.50526982546
          7.9204406738 -21.248838425 -0.60821181536 -4.3019428253 -9.027431488 -0.24346874654
          -1.4767235518 -5.8189473152 -0.58565688133 0.88582342863 -17.383026123 -0.20179986954
          0.44476297498 -13.941339493 0.38858437538 -3.3658611774 -8.5387239456 0.22667114437
          0 0 0 -1.5575256348 -5.7997322083 -0.23272311687
          15.101423264 -22.039993286 0.43659302592 -0.65526276827 -2.173252821 -0.12163738161
          7.9221420288 -21.339456558 -0.30334326625 -4.323433876 -9.0376195908 6.2310630256e-07
          0.88331609964 -17.404476166 1.6031465293e-06 -1.4401386976 -14.157316208 0.17860065401
          7.9233789444 -21.369335175 2.1407879558e-06 -1.5990202427 -5.7619504929 3.3248301179e-07
          11.492375374 -21.649265289 0.36824670434 -1.3774851561 -4.0580630302 0.088042795658
          -3.5094499588 -11.312968254 0.18083585799 -4.1252269745 -6.5816850662 0.31800314784
          3.744989872 -17.389305115 0.48630696535 4.4791855812 -21.039888382 -0.49821594357
          18.775163651 -22.404010773 1.0114405155 0 0 0
          -1.431129694 -7.7775468826 -0.64943987131 -0.54736196995 -2.2241501808 -0.20656372607
          15.084957123 -21.938085556 0.87430495024 -4.3019423485 -9.027431488 0.24347001314
          0.88582420349 -17.383026123 0.20180310309 4.4759950638 -21.115264893 -0.24775502086
          -3.4014585018 -14.412029266 -0.41466784477 -1.4398249388 -7.8695998192 -0.2836958766
          -1.5575255156 -5.7997322083 0.23272378743 7.9221429825 -21.339456558 0.30334755778
          -3.4355463982 -14.364243507 -0.21669760346 -1.1522088051 -17.485567093 -0.39306548238
          -3.991543293 -11.910262108 -0.70046806335 20.427101135 -26.263145447 -0.98085170984
          0 0 0 16.520532608 -25.809370041 -0.85355222225
          -1.4113051891 -14.156846046 0.36780276895 -1.2127326727 -4.124774456 0.31158587337
          11.483789444 -21.550556183 0.73862946033 -4.0503125191 -11.826136589 -0.31721630692
          -1.164921999 -17.484832764 -0.19314050674 -3.44896245 -11.35984993 0.3453681469
          20.442800522 -26.357831955 -0.48998373747 0 0 0
          -1.4496157169 -7.8618650436 5.518056696e-07 4.4760775566 -21.142047882 2.0684033188e-06
          0.011355694383 -2.4145596027 -0.0093630682677 16.534679413 -25.90385437 -0.42626920342
          0.0099838990718 -2.3620290756 -0.0040576527826 -3.4485068321 -14.369686127 1.2086765082e-06
          12.689383507 -25.427358627 -0.7277379632 -4.0707206726 -11.838183403 9.2325950618e-07
          -1.1698350906 -17.490661621 1.5690767441e-06 20.446365356 -26.38915062 2.8325330277e-06
          0 0 0 0.019921762869 -4.558555603 -0.0086114658043
          12.697763443 -25.518899918 -0.36291152239 16.538993835 -25.934923172 2.7694932214e-06
          -4.2045235634 -9.1313848495 0.5538572669 0.89755737782 -17.331972122 0.41582611203
          0.010212595575 -2.3819587231 8.6714074143e-08 0.020507676527 -4.6269669533 -0.0044922684319
          7.9204425812 -21.248838425 0.6082161665 -1.4767230749 -5.8189473152 0.58565765619
          -1.2725408077 -10.114128113 -0.63186407089 1.419672966 -20.949310303 -0.42939141393
          -1.4398247004 -7.8695993423 0.28369700909 4.4759960175 -21.115264893 0.24775917828
          -1.2480443716 -10.275495529 -0.29535850883 1.4153676033 -20.998018265 -0.20901615918
          -3.4355456829 -14.364243507 0.21670004725 12.700681686 -25.548784256 2.693260285e-06
          0.020474659279 -4.5845685005 2.8501628435e-07 8.8958358765 -25.122636795 -0.6068148613
          -4.0503120422 -11.826135635 0.31721818447 -1.1649211645 -17.484832764 0.19314366579
          20.442800522 -26.357831955 0.48998942971 0 0 0
          0.022865146399 -6.1877145767 -0.0067691248842 8.8992424011 -25.20716095 -0.30269095302
          16.53468132 -25.90385437 0.42627474666 0.023353697732 -6.3520536423 -0.0036006697919
          -1.2404307127 -10.286319733 8.0408409531e-07 1.4148995876 -21.017274857 1.9980113848e-06
          0.0099840024486 -2.3620290756 0.0040578492917 12.697764397 -25.518899918 0.36291691661
          8.9008712769 -25.23507309 2.6068416901e-06 0.023404004052 -6.2903866768 4.9251201517e-07
          4.4791874886 -21.039888382 0.4982201755 -3.2368500233 -17.672872543 -0.44348034263
          0.02050791122 -4.6269669533 0.0044928514399 -1.4311289787 -7.7775464058 0.64944112301
          -3.5389926434 -14.872636795 -0.7541757226 -3.2502305508 -17.632761002 -0.23092281818
          -3.4014570713 -14.412029266 0.41467037797 -3.5633821487 -14.828619957 -0.34702917933
          -1.248044014 -10.275495529 0.29536014795 1.415368557 -20.998018265 0.20902018249
          -1.1522072554 -17.485567093 0.39306873083 -3.9915421009 -11.910262108 0.7004699707
          0.023044070229 -8.0603199005 -0.0061301463284 5.2433905602 -24.901023865 -0.50388103724
          20.427103043 -26.263143539 0.98085743189 0 0 0
          16.520534515 -25.809370041 0.85355782509 0.023154262453 -8.3017158508 -0.0033081227448
          -3.2579424381 -17.640630722 1.5643057623e-06 -1.0611077547 -12.600251198 -0.58709102869
          -0.81916218996 -21.031087875 -0.3978728354 5.243224144 -24.972307205 -0.25046527386
          0.011355988681 -2.4145596027 0.009363357909 -3.581682682 -14.845373154 1.2549927533e-06
          8.8992433548 -25.20716095 0.30269619823 0.023353984579 -6.3520536423 0.0036016607191
          -0.82199275494 -21.034614563 -0.1977904886 -1.0301288366 -12.801045418 -0.28919732571
          12.689385414 -25.42735672 0.72774338722 0.023187154904 -8.2726583481 7.1159587378e-07
          5.2440171242 -24.997371674 2.5142383038e-06 0.019922301173 -4.558555603 0.0086120758206
          -0.82475686073 -21.041847229 1.9570206859e-06 22.034013748 -30.319419861 -0.95621216297
          0 0 0 -1.0212785006 -12.825505257 1.0922435649e-06
          22.047153473 -30.408927917 -0.47759321332 0 0 0
          -3.2502295971 -17.632761002 0.23092596233 17.924777985 -29.875802994 -0.83570683002
          -1.2725399733 -10.114128113 0.63186573982 1.4196747541 -20.949310303 0.42939552665
          0.56952530146 -2.2279663086 -0.22394573689 -3.5633814335 -14.828619957 0.34703168273
          17.936885834 -29.964996338 -0.41733759642 0.67563003302 -2.1794445515 -0.12861017883
          8.8958377838 -25.122636795 0.60682016611 22.050369263 -30.43844223 3.418255119e-06
          0.023154560477 -8.3017158508 0.0033095492981 13.879845619 -29.499446869 -0.7168187499
          1.2506281137 -4.1328854561 0.29650816321 5.2432250977 -24.972305298 0.25047034025
          0 0 0 1.9965603352 -24.778549194 -0.43394294381
          0.021699806675 -10.310497284 -0.0062003829516 0.022865789011 -6.1877145767 0.0067701200023
          1.4160978794 -4.0688023567 0.080893702805 13.887938499 -29.585762024 -0.35747712851
          17.940582275 -29.994239807 3.3271494431e-06 -0.82199180126 -21.034614563 0.19779442251
          0.021663984284 -10.591127396 -0.0033351765014 1.9963803291 -24.8273983 -0.2119422406
          -1.030128479 -12.801045418 0.28919950128 0.71172565222 -2.2483620644 1.4037428286e-07
          -2.9006476402 -18.009880066 -0.74131423235 13.890591621 -29.613933563 3.2245432067e-06
          -3.2368483543 -17.672872543 0.44348353148 1.4663136005 -4.0596961975 3.587802837e-07
          0.021686278284 -10.593459129 9.5245968623e-07 -2.9026741982 -18.00812912 -0.34471681714
          1.9970043898 -24.845722198 2.4257117275e-06 -3.5389912128 -14.872636795 0.7541782856
          22.04715538 -30.408927917 0.47760006785 9.8740615845 -29.193887711 -0.60291242599
          -0.78194773197 -15.284576416 -0.52011305094 0 0 0
          1.521420598 -5.8303852081 0.57298272848 -2.9657580853 -21.14591217 -0.44708690047
          1.6026848555 -5.8132081032 0.22662179172 9.8784780502 -29.273851395 -0.30072647333
          17.936887741 -29.964996338 0.41734427214 -0.75030893087 -15.503014565 -0.26733571291
          -2.9655032158 -21.11816597 -0.23096428812 0.67563015223 -2.1794445515 0.12861047685
          0.023044738919 -8.0603199005 0.0061315670609 5.2433924675 -24.901023865 0.50388616323
          -2.9188818932 -18.029705048 1.6025562672e-06 -1.0611069202 -12.600252151 0.58709323406
          -0.81916040182 -21.031087875 0.39787682891 9.880194664 -29.300346375 3.1118875086e-06
          13.887939453 -29.585762024 0.35748359561 -0.74266594648 -15.537772179 1.385721589e-06
          1.4160981178 -4.0688023567 -0.080892972648 1.6441237926 -5.7759289742 5.7380623275e-07
          0.021664269269 -10.591127396 0.0033370768651 1.9963812828 -24.8273983 0.21194711328
          -2.9686946869 -21.130737305 1.9307133243e-06 -0.42734971642 -24.792964935 -0.39330816269
          0.019247300923 -12.752813339 -0.0063257142901 -0.42507487535 -24.80355835 -0.19659507275
          0.019211102277 -13.053486824 -0.0034093190916 22.034017563 -30.319419861 0.95621901751
          0 0 0 -2.9026737213 -18.00812912 0.34472000599
          1.4773676395 -7.7911887169 0.63706493378 6.0293469429 -28.962869644 -0.50564163923
          1.4861758947 -7.8847475052 0.27774807811 17.924779892 -29.875802994 0.83571350574
          0.56952559948 -2.2279660702 0.22394612432 6.030632019 -29.031093597 -0.25117871165
          9.8784790039 -29.273851395 0.30073270202 -0.75030845404 -15.503014565 0.26733848453
          1.6026850939 -5.8132081032 -0.22662064433 -2.9655022621 -21.11816597 0.23096816242
          -0.42619368434 -24.812965393 2.3633415367e-06 0.019232129678 -13.087558746 1.1940142031e-06
          13.879847527 -29.499444962 0.71682524681 1.2506287098 -4.1328854561 -0.29650738835
          1.9965622425 -24.778547287 0.433947891 1.496060133 -7.8773398399 7.9801873198e-07
          0.021700473502 -10.310497284 0.00620225491 6.0316839218 -29.054988861 2.9942391393e-06
          23.605550766 -34.563121796 -0.93674361706 0 0 0
          -2.9006464481 -18.009880066 0.741317451 -0.42507383227 -24.80355835 0.19659981132
          0 0 0 19.301979065 -34.127830505 -0.82029938698
          -0.45786055923 -18.199186325 -0.45177608728 0.019211383536 -13.053486824 0.0034117002506
          1.7702503204 -1.3894228935 -0.71296691895 -2.1359393597 -21.348333359 -0.69306540489
          23.616355896 -34.649223328 -0.46764579415 9.8740634918 -29.193887711 0.60291868448
          19.312108994 -34.213451385 -0.40957075357 1.8816055059 -1.5430039167 -0.27594748139
          -0.7819468379 -15.284576416 0.52011585236 -0.42826279998 -18.416433334 -0.23848564923
          1.5214211941 -5.8303852081 -0.5729816556 2.6166236401 -28.813592911 -0.43497928977
          1.4861760139 -7.8847475052 -0.27774649858 -2.9657561779 -21.14591217 0.44709080458
          1.3170427084 -10.130722046 0.6189455986 6.0306329727 -29.031093597 0.25118470192
          -2.1273732185 -21.381210327 -0.32494238019 1.2924878597 -10.293317795 0.2891369462
          2.6175358295 -28.862951279 -0.21292804182 15.053943634 -33.757781982 -0.70563012362
          23.619117737 -34.677436829 4.0506179175e-06 2.9770941734 -2.6927034855 -0.29939216375
          0 0 0 15.061362267 -33.840332031 -0.35176700354
          3.1523683071 -2.7379405499 -0.16756506264 19.315158844 -34.241317749 3.9273950279e-06
          -2.6036241055 -24.843158722 -0.43569132686 -0.42092889547 -18.45658493 1.6788018229e-06
          -2.1419942379 -21.407215118 1.946545126e-06 0.016027087346 -15.369440079 -0.0063231759705
          2.0237936974 -1.6191923618 1.7463774782e-07 -2.5975539684 -24.827425003 -0.22317814827
          2.6185309887 -28.880710602 2.8819893032e-06 0.01604139246 -15.662006378 -0.0034114557784
          1.2850177288 -10.304367065 1.026567702e-06 -0.42734774947 -24.792964935 0.39331296086
          15.063417435 -33.867198944 3.7945953864e-06 0.019247973338 -12.752813339 0.006328065414
          3.1834130287 -2.7763001919 3.5777841845e-07 10.849514008 -33.454429626 -0.59704124928
          23.616355896 -34.649223328 0.46765390038 -2.5993783474 -24.843177795 2.3080758638e-06
          3.7483625412 -4.4588193893 0.03844717145 1.4773682356 -7.7911887169 -0.63706344366
          0.016063170508 -15.712719917 1.435558147e-06 6.0293488503 -28.962869644 0.5056476593
          0 0 0 10.854053497 -33.530742645 -0.29764431715
          3.89696455 -4.4075241089 -0.0039171809331 19.312110901 -34.213447571 0.40957862139
          -0.42826238275 -18.416433334 0.23848900199 -2.1273725033 -21.381210327 0.32494628429
          1.8816055059 -1.5430039167 0.27594783902 2.6175370216 -28.862951279 0.21293382347
          1.2924879789 -10.293317795 -0.28913491964 15.06136322 -33.840332031 0.35177460313
          10.855381966 -33.556194305 3.6514081785e-06 0.016242213547 -28.768831253 -0.38592794538
          1.1015928984 -12.61898613 0.57354360819 3.9179372787 -4.426030159 5.5212461803e-07
          3.1523685455 -2.7379403114 0.1675657779 1.0705342293 -12.820827484 0.2826205194
          -2.5975527763 -24.827425003 0.22318276763 0.018674055114 -28.786716461 -0.19348587096
          0.016041675583 -15.662006378 0.0034143177327 6.8295083046 -33.218673706 -0.50568717718
          23.605552673 -34.563121796 0.93675178289 0 0 0
          4.167696476 -6.6100649834 0.31129828095 6.8307571411 -33.283821106 -0.25098884106
          19.301980972 -34.127830505 0.8203073144 4.2948713303 -6.5189843178 0.12751376629