<?xml version="1.0"?>
<VTKFile type="UnstructuredGrid" version="0.1" byte_order="LittleEndian" header_type="UInt32" compressor="vtkZLibDataCompressor">
  <UnstructuredGrid>
    <Piece NumberOfPoints="6405" NumberOfCells="4800">
      <PointData>
        <DataArray type="Float32" Name="DISPLACEMENT" NumberOfComponents="3" ComponentName0="X-DISPLACEMENT" ComponentName1="Y-DISPLACEMENT" ComponentName2="Z-DISPLACEMENT" format="ascii" RangeMin="0" RangeMax="306.18696197">
          0 0 0 0 0 0
          2.3945319653 -1.4538245201 -1.096513629 0 0 0
          1.4628732204 -0.84960573912 -0.79483282566 0 0 0
          2.1965694427 -1.6298545599 -0.43240851164 1.2727341652 -0.99733912945 -0.32331559062
          0 0 0 4.3000092506 -2.8394670486 -1.1118383408
          0 0 0 4.2448759079 -3.0390205383 -0.57083916664
          2.9337716103 -2.3783318996 -0.88581824303 0 0 0
          0 0 0 2.2065591812 -1.6832062006 -1.3397522025e-07
          0.93921220303 -0.55781543255 -0.53246992826 1.2673128843 -1.0219572783 -2.3495397627e-08
          2.8712105751 -2.5390594006 -0.45079991221 0.7978066802 -0.69377946854 -0.21639356017
          4.1987466812 -3.0938324928 -1.4963573847e-07 1.9018007517 -2.037466526 -0.64917331934
          0 0 0 2.8335940838 -2.5890853405 3.9879537894e-08
          1.8228658438 -2.1774513721 -0.3333825171 0 0 0
          5.9840550423 -4.6614842415 -1.0258388519 0 0 0
          0.79063481092 -0.7103561759 6.402094499e-08 0 0 0
          0 0 0 2.1965694427 -1.6298547983 0.43240827322
          4.2919645309 -4.2330698967 -0.84858626127 6.0070881844 -4.8026857376 -0.52259397507
          0.25299596786 -0.38820508122 -0.24257002771 1.2727342844 -0.99733936787 0.32331556082
          4.3091878891 -4.3645982742 -0.43187490106 0.12187390029 -0.53655391932 -0.12244803458
          1.7917202711 -2.2180895805 2.1012569107e-07 4.2448759079 -3.0390210152 0.57083892822
          0 0 0 0 0 0
          0.73834699392 -1.8424195051 -0.47163051367 2.8885114193 -3.9302990437 -0.68357151747
          5.9918427467 -4.8529453278 -9.1269896529e-08 2.8712110519 -2.5390598774 0.45080003142
          2.8765966892 -4.0486745834 -0.34845453501 0.79780679941 -0.69377964735 0.21639370918
          4.2998466492 -4.4083194733 1.7204897063e-07 0.65148532391 -1.9568715096 -0.23844374716
          0.10422173887 -0.55277049541 1.4555149619e-07 0 0 0
          7.5063781738 -6.7123355865 -0.89999103546 0 0 0
          5.5750031471 -6.3180627823 -0.7743473053 1.8228660822 -2.177451849 0.33338296413
          7.5545825958 -6.8107733727 -0.45596191287 2.3945324421 -1.4538249969 1.0965135098
          0 0 0 0 0 0
          0.62795060873 -1.9962724447 3.7325398239e-07 2.8660781384 -4.0897340775 4.1814004703e-07
          -0.046167902648 -0.6224809289 -0.28861948848 5.617331028 -6.4155879021 -0.3911703825
          1.4628734589 -0.84960615635 0.79483288527 1.5467977524 -3.714266777 -0.55392301083
          0 0 0 6.0070886612 -4.8026862144 0.52259379625
          -0.11782392859 -0.67918843031 -0.12329387665 1.5244591236 -3.8222930431 -0.26970893145
          4.3091883659 -4.3645987511 0.43187525868 0.12187398225 -0.53655403852 0.12244834751
          3.9054510593 -5.9941902161 -0.65051585436 0.14437630773 -1.9533615112 -0.390116781
          7.5553321838 -6.8452525139 3.7597761349e-08 4.3000097275 -2.8394677639 1.1118382215
          0 0 0 0 0 0
          3.9231579304 -6.0930113792 -0.32856324315 2.9337720871 -2.3783326149 0.88581842184
          5.623565197 -6.4496593475 3.5902240825e-07 0.15499979258 -2.0505154133 -0.17724063993
          0.93921256065 -0.55781579018 0.53247016668 -0.10429853946 -0.74473321438 2.8802301699e-07
          1.5056055784 -3.8553166389 6.8636779815e-07 2.8765971661 -4.0486750603 0.34845539927
          0.65148562193 -1.9568718672 0.23844453692 3.922577858 -6.1263356209 6.6643144692e-07
          1.9018013477 -2.0374674797 0.64917385578 0.14786884189 -2.0964872837 6.5375661507e-07
          2.4030685425 -5.735188961 -0.50891488791 7.5545830727 -6.8107738495 0.45596200228
          5.9840555191 -4.6614851952 1.0258387327 0 0 0
          8.8752841949 -8.9243841171 -0.79274684191 0 0 0
          0 0 0 0.43724277616 -3.6284768581 -0.31420212984
          2.4024763107 -5.8439803123 -0.25578799844 8.9228210449 -8.991024971 -0.39869177341
          6.7787947655 -8.560005188 -0.70508384705 5.6173315048 -6.4155883789 0.39117109776
          -0.76501989365 -0.78908473253 -0.22385984659 0 0 0
          4.2919650078 -4.2330708504 0.8485866785 0.25299626589 -0.38820537925 0.24257043004
          0.4433735311 -3.7615613937 -0.17304235697 -0.11782370508 -0.67918860912 0.12329448014
          -0.78162682056 -0.84131628275 -0.11879357696 1.5244597197 -3.82229352 0.26971030235
          6.8206553459 -8.6301765442 -0.3534655869 3.9231584072 -6.0930118561 0.32856461406
          2.3972382545 -5.8744821548 9.8955422345e-07 8.9298200607 -9.0148115158 2.3190825971e-07
          -0.65505677462 -2.1628842354 -0.2732950449 0.1550001502 -2.0505158901 0.17724195123
          0 0 0 4.9257879257 -8.2471256256 -0.61138272285
          0.73834770918 -1.8424202204 0.47163146734 2.888512373 -3.9302999973 0.68357241154
          0.43343597651 -3.7855181694 1.0271281781e-06 6.8310680389 -8.6544837952 5.9448058209e-07
          -0.77163177729 -0.87966454029 5.2915356719e-07 -0.68102157116 -2.2495594025 -0.11851787567
          4.9443149567 -8.3205051422 -0.30576235056 7.5063791275 -6.7123365402 0.89999115467
          0 0 0 0.75102728605 -5.5684194565 -0.30384114385
          5.5750041008 -6.3180642128 0.77434808016 -0.67230844498 -2.2813940048 8.9565122607e-07
          0.74067229033 -5.6967978477 -0.17022635043 4.9488458633 -8.3435688019 9.3593575912e-07
          -0.04616721347 -0.62248134613 0.28862026334 2.4024767876 -5.8439807892 0.25578999519
          3.1828474998 -8.0040912628 -0.49910664558 8.9228219986 -8.9910259247 0.39869225025
          -0.43488636613 -3.908721447 -0.32314890623 1.5467988253 -3.7142679691 0.55392444134
          0 0 0 0.44337382913 -3.7615618706 0.17304438353
          3.1695263386 -8.0775585175 -0.25237688422 -0.78162652254 -0.84131640196 0.11879469454
          -0.50708812475 -3.9541873932 -0.12180864066 6.8206558228 -8.6301774979 0.35346677899
          3.905452013 -5.9941911697 0.65051722527 0.14437717199 -1.9533622265 0.3901181221
          10.105128288 -11.243296623 -0.70938515663 0 0 0
          0.74945443869 -5.7305445671 1.2974725223e-06 7.893184185 -10.915971756 -0.65157437325
          10.143896103 -11.287828445 -0.35576289892 0 0 0
          -0.085141144693 -1.1817783117 -0.032678797841 7.9272685051 -10.963745117 -0.32507926226
          3.167992115 -8.0984506607 1.2714546074e-06 -0.12553174794 -1.2427090406 -0.019743828103
          -0.68102115393 -2.2495596409 0.11851967126 -0.48094365001 -4.0031433105 1.212836537e-06
          4.9443154335 -8.3205060959 0.30576425791 5.8808250427 -10.651281357 -0.59045386314
          -0.35599604249 -2.4896411896 -0.1337351799 10.151665688 -11.304059982 4.8627322258e-07
          0 0 0 -0.40043741465 -2.5607411861 -0.059613324702
          5.8960843086 -10.698050499 -0.29347583652 7.9372463226 -10.980566978 8.758525496e-07
          -0.12933120131 -1.2571849823 4.5957148131e-07 2.4030697346 -5.7351899147 0.50891691446
          1.2127580643 -7.8225779533 -0.40011993051 8.8752851486 -8.9243860245 0.79274731874
          0 0 0 -0.15541657805 -5.8578586578 -0.4537730217
          0.74067258835 -5.6967983246 0.17022897303 0.43724361062 -3.6284778118 0.31420409679
          6.7787957191 -8.5600070953 0.70508509874 -0.76501899958 -0.78908532858 0.22386106849
          -0.22348894179 -5.8455166817 -0.17054384947 1.1789543629 -7.8937034607 -0.20103536546
          3.1695270538 -8.0775594711 0.25237947702 -0.50708764791 -3.95418787 0.12181109935
          5.9014706612 -10.713450432 1.2437292298e-06 -0.41339886189 -2.5813190937 1.024884682e-06
          3.962151289 -10.476354599 -0.53244423866 -0.55864131451 -4.1852126122 -0.15642759204
          -0.65505570173 -2.1628851891 0.27329695225 10.143897057 -11.287829399 0.3557638824
          4.9257888794 -8.247127533 0.6113846302 0 0 0
          1.1828541756 -7.9159598351 1.6147880615e-06 -0.19762386382 -5.9002580643 1.5137376295e-06
          3.9519388676 -10.510038376 -0.26635065675 7.9272689819 -10.963746071 0.32508102059
          -0.62444829941 -4.2639169693 -0.12106107175 -0.12553158402 -1.2427092791 0.019744763151
          0.75102818012 -5.5684204102 0.30384382606 3.9525203705 -10.524122238 1.6130695712e-06
          5.8960847855 -10.698051453 0.29347833991 -0.40043708682 -2.560741663 0.059615399688
          -0.60839903355 -4.2659235001 1.5627502989e-06 11.218118668 -13.620207787 -0.64963203669
          0 0 0 11.247101784 -13.65116024 -0.32559266686
          3.1828489304 -8.0040931702 0.49910929799 8.9204702377 -13.32299614 -0.61030626297
          -0.43488511443 -3.9087226391 0.32315152884 0.27137702703 -8.0541534424 -0.56031620502
          -0.080723367631 -1.3813093901 -0.002169997897 -0.22348822653 -5.8455171585 0.17054700851
          1.1789550781 -7.8937039375 0.20103867352 0 0 0
          8.9470710754 -13.356482506 -0.30396956205 0.26266884804 -8.0274572372 -0.23397029936
          -0.098413318396 -1.4112063646 0.0030824362766 1.9665607214 -10.325756073 -0.53437042236
          -0.85623276234 -6.2736158371 -0.59540396929 10.105129242 -11.243298531 0.70938616991
          0 0 0 7.8931851387 -10.915973663 0.65157616138
          11.254259109 -13.662734032 7.9043275036e-07 -0.87802708149 -6.1863217354 -0.2701279819
          1.9338518381 -10.337957382 -0.25180488825 -0.085140436888 -1.1817785501 0.032679878175
          6.7677779198 -13.090537071 -0.56930315495 -0.24827106297 -2.8593673706 -0.046485122293
          0 0 0 3.9519395828 -10.51003933 0.266353935
          -0.62444800138 -4.2639174461 0.1210641712 8.9551753998 -13.368391991 1.1930908386e-06
          0.27900266647 -8.0649232864 1.9702754344e-06 6.7852611542 -13.120697021 -0.28294622898
          -0.2822521925 -2.9102351665 -0.019291318953 -0.10356680304 -1.4248939753 4.8946503739e-07
          5.8808264732 -10.65128231 0.59045636654 -0.35599496961 -2.4896419048 0.13373722136
          1.9222364426 -10.346652985 2.0231655071e-06 -0.84109181166 -6.1996011734 1.8855562303e-06
          1.2127593756 -7.8225793839 0.40012347698 6.7902712822 -13.130929947 1.5844408381e-06
          -0.28934502602 -2.9261877537 1.1370357242e-06 -0.15541504323 -5.8578600883 0.45377644897
          11.247102737 -13.651161194 0.32559424639 4.7166872025 -12.945788383 -0.53869694471
          0 0 0 -0.49206328392 -4.5753054619 -0.11293480545
          4.723596096 -12.963172913 -0.26874023676 8.9470720291 -13.356483459 0.30397194624
          -0.098413139582 -1.4112064838 -0.0030814635102 0.26266980171 -8.0274581909 0.23397436738
          -0.52899426222 -4.6358456612 -0.052927512676 3.9621527195 -10.476356506 0.53244763613
          0.7417922616 -10.381827354 -0.52195042372 1.933852911 -10.337958336 0.25180900097
          -0.55864024162 -4.1852135658 0.15643063188 -0.87802660465 -6.1863222122 0.27013191581
          -0.52332085371 -8.4519052505 -0.62997734547 0.76847308874 -10.399899483 -0.26013058424
          4.7239079475 -12.971065521 1.9887415874e-06 6.7852621078 -13.120697021 0.28294941783
          -0.28225183487 -2.910235405 0.019293596968 -0.51156312227 -8.4026975632 -0.29529175162
          -0.54555016756 -4.6533565521 1.847715339e-06 12.251894951 -16.019865036 -0.61282157898
          0 0 0 -0.075085401535 -1.5075272322 0.016844250262
          0.78279012442 -10.413756371 2.5241583899e-06 2.8037145138 -12.83589077 -0.54236018658
          9.885764122 -15.736730576 -0.57854491472 11.218119621 -13.620209694 0.64963358641
          0 0 0 0 0 0
          -0.49524739385 -8.3996076584 2.4903911253e-06 -0.69529676437 -6.4710216522 -0.13135236502
          12.27153492 -16.046327591 -0.30679997802 2.7946622372 -12.84015274 -0.26363682747
          9.9053430557 -15.765499115 -0.28782558441 8.9204711914 -13.322998047 0.61030864716
          -0.079911932349 -1.5255022049 0.0088376430795 0.27137884498 -8.0541543961 0.56032043695
          -0.080722570419 -1.3813096285 0.0021711194422 -0.75828182697 -6.5702676773 -0.12029317766
          4.7235965729 -12.963173866 0.26874423027 -0.52899384499 -4.635846138 0.052931144834
          7.6094226837 -15.511509895 -0.53972113132 1.966562748 -10.32575798 0.5343747139
          -0.85623133183 -6.2736172676 0.5954079628 0 0 0
          -0.21526835859 -3.1052777767 -0.00055342551786 12.27785778 -16.056028366 1.1223824004e-06
          -0.082419700921 -1.5332875252 5.1887963082e-07 2.7763142586 -12.840929985 2.4540115646e-06
          7.628364563 -15.537283897 -0.26781079173 6.7677793503 -13.090538025 0.56930631399
          9.9114093781 -15.775118828 1.5246173461e-06 -0.24826988578 -2.8593678474 0.046487402171
          -0.76201820374 -6.566640377 2.6394873203e-06 -0.22803589702 -3.1380221844 0.0041053867899
          0.76847404242 -10.399900436 0.26013568044 -0.51156258583 -8.4026985168 0.29529681802
          -0.14612185955 -10.772529602 -0.61875504255 7.6326699257 -15.544732094 1.9299138785e-06
          -0.23324978352 -3.1508207321 1.2294492535e-06 -0.14684471488 -10.736969948 -0.28448703885
          5.4432563782 -15.369319916 -0.50772476196 0 0 0
          -0.40456834435 -4.859310627 -0.0086605055258 12.27153492 -16.046327591 0.30680221319
          -0.079911738634 -1.5255023241 -0.0088366083801 2.7946634293 -12.840154648 0.26364174485
          5.4605798721 -15.383199692 -0.25067922473 4.716688633 -12.945790291 0.53870099783
          9.9053440094 -15.765500069 0.28782862425 1.2041646242 -12.789992332 -0.49174287915
          -1.0855623484 -8.7172241211 -0.36552533507 -0.49206200242 -4.5753064156 0.11293833703
          -0.42591410875 -4.9130868912 -0.0042889174074 -0.75828176737 -6.5702681541 0.12029831111
          1.2188450098 -12.803900719 -0.25664791465 -1.1278666258 -8.7810964584 -0.24472880363
          -0.11790474504 -10.755311012 3.0220164717e-06 0.74179404974 -10.381829262 0.52195543051
          7.6283650398 -15.537284851 0.26781463623 -0.5233194232 -8.4519062042 0.62998235226
          5.4605231285 -15.385639191 2.3551513095e-06 -0.22803550959 -3.1380221844 -0.0041029248387
          -0.43409213424 -4.9302577972 2.0388233679e-06 1.2344648838 -12.807939529 2.9753812214e-06
          -1.0354814529 -8.7293119431 3.2804091461e-06 -0.66118705273 -6.8349294662 -0.032277639955
          3.4825356007 -15.316115379 -0.49041455984 12.251895905 -16.019866943 0.61282378435
          0 0 0 -0.14684423804 -10.736970901 0.28449308872
          -0.075084537268 -1.5075273514 -0.016843058169 -0.69390803576 -6.9094171524 -0.0090244021267
          2.8037166595 -12.835892677 0.54236513376 9.8857660294 -15.736732483 0.57854795456
          3.4840693474 -15.310575485 -0.24623999 13.249152184 -18.439077377 -0.59653484821
          0 0 0 -0.6952958703 -6.4710226059 0.13135699928
          13.260075569 -18.468175888 -0.29789069295 -0.066227294505 -1.5814044476 0.028640557081
          10.816949844 -18.157880783 -0.55667191744 5.460580349 -15.383200645 0.2506839335
          0 0 0 -0.42591372132 -4.913087368 0.0042929425836
          10.829128265 -18.18901062 -0.27671608329 -0.061478093266 -1.593157649 0.012818977237
          1.2188458443 -12.803901672 0.25665384531 -1.1278674603 -8.7810974121 0.24473543465
          7.6094236374 -15.511511803 0.53972500563 -0.7079641819 -6.9274706841 2.8780289085e-06
          3.4687678814 -15.306470871 2.834928182e-06 -0.21526706219 -3.1052780151 0.00055588915711
          0.2337680608 -13.149860382 -0.63516628742 -0.15899848938 -3.2417325974 0.030709419399
          8.425245285 -17.92483139 -0.51034742594 -1.0579800606 -11.180161476 -0.68484026194
          13.265030861 -18.478084564 1.4535820583e-06 0 0 0
          0.24968074262 -13.108157158 -0.28666734695 10.833311081 -18.198574066 1.8452028598e-06
          -0.062325783074 -1.5985451937 5.3690700952e-07 8.4401836395 -17.952785492 -0.25190114975
          -0.15929596126 -3.2638993263 0.017601976171 -1.0473630428 -11.127450943 -0.34543153644
          -0.14612063766 -10.772531509 0.61876112223 0.26981690526 -13.127272606 3.4123399928e-06
          -0.94031178951 -8.9870586395 -0.033268131316 -0.69390785694 -6.9094176292 0.0090300319716
          1.744702816 -15.328103065 -0.52061158419 8.4432353973 -17.958271027 2.2493011329e-06
          5.4432573318 -15.369321823 0.50772947073 3.4840703011 -15.310576439 0.24624565244
          -1.044049263 -11.117442131 3.6285346141e-06 -0.15976396203 -3.2732927799 1.2679296333e-06
          -0.40456700325 -4.8593111038 0.0086643686518 13.260075569 -18.468177795 0.29789361358
          6.1231408119 -17.780118942 -0.461407125 -1.0218933821 -9.0980558395 -0.058771405369
          -0.2867372632 -5.0558114052 0.033212665468 1.7512129545 -15.309523582 -0.25587370992
          1.2041662931 -12.78999424 0.49174878001 -1.0855625868 -8.7172260284 0.36553233862
          0 0 0 -0.28959530592 -5.0886149406 0.021074486896
          10.829129219 -18.189012527 0.27671977878 -0.061477895826 -1.593157649 -0.012817908078
          6.1368503571 -17.792551041 -0.22671923041 -1.0418145657 -9.1169481277 3.7069974042e-06
          1.7591202259 -15.308643341 3.301720426e-06 0.24968126416 -13.108158112 0.28667423129
          6.1345868111 -17.791557312 2.6825298391e-06 -0.29380595684 -5.1031794548 2.08913184e-06
          8.4401836395 -17.952785492 0.2519056201 -0.15929557383 -3.2638995647 -0.017599435523
          -1.0473626852 -11.127451897 0.34543883801 -0.66118597984 -6.8349304199 0.032283034176
          3.4825372696 -15.316117287 0.49042016268 4.0016884804 -17.756958008 -0.44978410006
          13.249153137 -18.439079285 0.59653770924 0 0 0
          -0.44684109092 -7.0657410622 0.04920546338 -0.066226407886 -1.5814044476 -0.028639327735
          10.816950798 -18.15788269 0.55667555332 -1.0218935013 -9.0980567932 0.058778695762
          1.7512139082 -15.30952549 0.25588029623 4.0003476143 -17.739887238 -0.22588482499
          -0.67155629396 -13.56470108 -0.68785399199 -0.45937871933 -7.1155376434 0.025741573423
          -0.28959485888 -5.0886149406 -0.021070357412 6.1368508339 -17.792552948 0.22672456503
          -0.64603102207 -13.520924568 -0.33872124553 0.65042644739 -15.586771011 -0.59994786978
          -1.4582827091 -11.463862419 -0.37151962519 14.240670204 -20.900985718 -0.59484320879
          0 0 0 11.733802795 -20.616950989 -0.546182096
          0.23376911879 -13.149862289 0.63517314196 -0.15899716318 -3.2417325974 -0.030706878752
          8.4252462387 -17.924833298 0.51035189629 -1.5350455046 -11.542409897 -0.258382231
          0.66846203804 -15.554005623 -0.28485375643 -1.0579792261 -11.180163383 0.6848475337
          14.244338036 -20.935686111 -0.29643082619 0 0 0
          -0.46952790022 -7.1376919746 2.9183620427e-06 3.984568119 -17.733997345 3.1427132399e-06
          -0.047571130097 -1.5992227793 0.037167318165 11.738532066 -20.652956009 -0.27154272795
          -0.036702301353 -1.6086441278 0.015532482415 -0.6472851634 -13.508112907 3.9201868276e-06
          9.2314376831 -20.373071671 -0.49151551723 -1.4634751081 -11.507450104 4.2628544179e-06
          0.67277777195 -15.555294037 3.7276781768e-06 14.247469902 -20.946903229 1.7574107005e-06
          0 0 0 -0.082152500749 -3.2750244141 0.048819489777
          9.2402076721 -20.405735016 -0.24225568771 11.740744591 -20.663633347 2.1316557195e-06
          -0.94031113386 -8.9870595932 0.033274617046 1.7447044849 -15.328104973 0.5206181407
          -0.036012280732 -1.6129620075 5.3663364952e-07 -0.074306309223 -3.291680336 0.025275032967
          6.1231422424 -17.78012085 0.46141240001 -0.28673583269 -5.0558114052 -0.033208668232
          -0.67383575439 -9.3168230057 0.039000768214 2.3288116455 -17.842897415 -0.53179347515
          -0.4593783915 -7.1155381203 -0.025735832751 4.0003480911 -17.739887238 0.22589106858
          -0.71019017696 -9.3878278732 0.030354781076 2.3332202435 -17.807590485 -0.25277411938
          -0.64603072405 -13.520925522 0.33872911334 9.24335289 -20.412340164 2.5222102522e-06
          -0.071675226092 -3.2993490696 1.2497000625e-06 6.7570738792 -20.207765579 -0.43395757675
          -1.5350465775 -11.542410851 0.25839090347 0.66846257448 -15.554006577 0.28486120701
          14.244338036 -20.935686111 0.29643431306 0 0 0
          -0.10855814815 -5.099006176 0.05684396252 6.7559890747 -20.222028732 -0.21601483226
          11.73853302 -20.652956009 0.27154695988 -0.1037947163 -5.1229329109 0.029405474663
          -0.73283296824 -9.4196052551 3.691816346e-06 2.3309965134 -17.800394058 3.5426016893e-06
          -0.036702118814 -1.6086441278 -0.015531416051 9.2402076721 -20.405735016 0.24226072431
          6.7467999458 -20.221288681 2.927190053e-06 -0.10216144472 -5.1350355148 2.0293111902e-06
          4.0016899109 -17.756959915 0.44979026914 -0.26319119334 -15.984012604 -0.65161663294
          -0.074305936694 -3.2916800976 -0.02527252771 -0.44683983922 -7.0657410622 -0.049200046808
          -1.4713565111 -14.010989189 -0.75123757124 -0.2509585619 -15.94774437 -0.31195318699
          -0.67155563831 -13.564702988 0.68786180019 -1.4546045065 -13.965395927 -0.36752948165
          -0.71019011736 -9.3878278732 -0.03034757264 2.3332209587 -17.807592392 0.25278118253
          0.65042740107 -15.586772919 0.59995520115 -1.4582836628 -11.463864326 0.3715287149
          -0.12882165611 -7.130756855 0.06236539036 4.4597730637 -20.156999588 -0.42829218507
          14.240671158 -20.900985718 0.59484666586 0 0 0
          11.733803749 -20.616952896 0.54618632793 -0.12511201203 -7.1618299484 0.032943364233
          -0.25944498181 -15.936674118 4.1070052248e-06 -0.98528623581 -11.663116455 0.083716824651
          1.0892688036 -18.01017952 -0.56301409006 4.4462742805 -20.140068054 -0.21531920135
          -0.047570269555 -1.5992226601 -0.037166099995 -1.4513324499 -13.95192337 4.3696227294e-06
          6.7559890747 -20.22203064 0.21602067351 -0.10379429162 -5.1229324341 -0.029401460662
          1.0881137848 -17.971628189 -0.27469110489 -1.1129809618 -11.816466331 -0.05319089815
          9.2314386368 -20.373071671 0.49152049422 -0.12465512007 -7.1827869415 2.7824378321e-06
          4.4212422371 -20.133897781 3.3544831695e-06 -0.082151219249 -3.2750244141 -0.048816990107
          1.0743378401 -17.951990128 3.9209426177e-06 15.240703583 -23.433282852 -0.60119396448
          0 0 0 -1.1076834202 -11.83738327 4.3145878408e-06
          15.239233017 -23.473194122 -0.29953408241 0 0 0
          -0.25095826387 -15.947745323 0.31196141243 12.647849083 -23.146097183 -0.54579949379
          -0.67383503914 -9.3168230057 -0.038993895054 2.328813076 -17.842899323 0.5318005085
          -0.026985252276 -1.5601564646 0.045131452382 -1.4546042681 -13.965396881 0.36753824353
          12.647183418 -23.186382294 -0.27165901661 -0.010470215231 -1.57028687 0.018238572404
          6.7570743561 -20.207767487 0.4339633584 15.240488052 -23.485973358 2.0145175768e-06
          -0.1251116842 -7.1618299484 -0.032937891781 10.037147522 -22.89541626 -0.48726683855
          -0.0011910488829 -3.1969566345 0.066239580512 4.4462742805 -20.140069962 0.21532589197
          0 0 0 2.8905546665 -20.274019241 -0.51775807142
          -0.13722890615 -9.3737230301 0.072357371449 -0.10855679214 -5.0990056992 -0.056840080768
          0.013533408754 -3.2155292034 0.032573215663 10.038897514 -22.932743073 -0.24128088355
          12.647950172 -23.19861412 2.3696002245e-06 1.0881142616 -17.971630096 0.2746989429
          -0.13571543992 -9.433303833 0.036128889769 2.8919818401 -20.233207703 -0.24471601844
          -1.112981081 -11.816466331 0.053199429065 -0.0085315536708 -1.5747015476 5.2831592257e-07
          -1.0245088339 -16.453897476 -0.72251772881 10.040215492 -22.94285202 2.7403664262e-06
          -0.26319071651 -15.984014511 0.65162473917 0.019077157602 -3.2231557369 1.1971445701e-06
          -0.13600625098 -9.465546608 3.4522722672e-06 -1.0161349773 -16.404813766 -0.34201338887
          2.8834383488 -20.216997147 3.7412269194e-06 -1.4713563919 -14.010991096 0.75124627352
          15.239233017 -23.47319603 0.29953807592 7.405107975 -22.700181961 -0.43276020885
          -1.8454662561 -14.536316872 -0.75022178888 0 0 0
          0.073168262839 -4.9823412895 0.077135458589 0.12984834611 -18.360744476 -0.61177957058
          0.084912717342 -5.0095262527 0.036997262388 7.4058699608 -22.723571777 -0.21661379933
          12.647183418 -23.186382294 0.27166372538 -1.8511339426 -14.523748398 -0.38182273507
          0.11913459003 -18.315711975 -0.29047432542 -0.010470060632 -1.5702867508 -0.018237529323
          -0.12882050872 -7.1307563782 -0.062360174954 4.4597735405 -20.157001495 0.42829880118
          -1.0293302536 -16.388267517 4.3693016778e-06 -0.98528581858 -11.663116455 -0.0837091133
          1.0892696381 -18.01017952 0.56302177906 7.4047307968 -22.728818893 3.1125684927e-06
          10.038897514 -22.93274498 0.24128635228 -1.7944415808 -14.50928688 4.659548722e-06
          0.013533721678 -3.2155292034 -0.032570824027 0.091502942145 -5.0213327408 1.8939485926e-06
          -0.13571533561 -9.4333028793 -0.036122109741 2.8919825554 -20.233207703 0.24472346902
          0.090304486454 -18.291809082 4.188114417e-06 1.5674899817 -20.401109695 -0.54675877094
          -0.15620353818 -11.895860672 0.077535830438 1.5474089384 -20.351131439 -0.26466304064
          -0.15336623788 -11.99289608 0.042446024716 15.240703583 -23.43328476 0.60119789839
          0 0 0 -1.0161348581 -16.404815674 0.34202218056
          0.20166665316 -6.963737011 0.075303696096 4.9422283173 -22.597417831 -0.41872918606
          0.2167147547 -7.002805233 0.036780513823 12.647849083 -23.146099091 0.54580414295
          -0.02698446624 -1.5601563454 -0.045130278915 4.9332623482 -22.590993881 -0.21095278859
          7.4058699608 -22.723573685 0.21662001312 -1.8511345387 -14.523749352 0.38183218241
          0.084913052619 -5.0095257759 -0.036993518472 0.1191348657 -18.315711975 0.29048269987
          1.5154596567 -20.314788818 4.0445615923e-06 -0.15741746128 -12.04915905 3.9813608055e-06
          10.037148476 -22.895418167 0.48727226257 -0.0011899211677 -3.1969561577 -0.066237203777
          2.8905558586 -20.274021149 0.51776540279 0.2280792594 -7.0217337608 2.5262256713e-06
          -0.1372281611 -9.3737220764 -0.072351008654 4.9149832726 -22.589300156 3.5109799228e-06
          16.253356934 -26.053873062 -0.61091130972 0 0 0
          -1.0245087147 -16.453899384 0.72252643108 1.5474094152 -20.351133347 0.26467108727
          0 0 0 13.566025734 -25.763401031 -0.55115509033
          -1.4777377844 -17.071380615 -0.8755415678 -0.1533664614 -11.99289608 -0.042438231409
          -0.011715088971 -1.4634029865 0.055715553463 -0.60637760162 -18.853855133 -0.68580788374
          16.249223709 -26.097688675 -0.30472844839 7.4051084518 -22.700183868 0.43276640773
          13.562397003 -25.807001114 -0.27486473322 0.012370660901 -1.4772676229 0.022030100226
          -1.8454672098 -14.536317825 0.75023156404 -1.4475406408 -16.987518311 -0.40014538169
          0.073169402778 -4.9823408127 -0.077131845057 3.4408638477 -22.680360794 -0.50075209141
          0.21671499312 -7.0028047562 -0.036775536835 0.12984868884 -18.360746384 0.61178779602
          0.40543314815 -9.1761522293 0.081285826862 4.933262825 -22.590993881 0.21095980704
          -0.61507123709 -18.791389465 -0.3189021945 0.44471395016 -9.2340192795 0.034920163453
          3.4360852242 -22.638050079 -0.23625950515 10.850068092 -25.505901337 -0.491137743
          16.249261856 -26.111862183 2.2096912744e-06 0.067513421178 -3.0163736343 0.092931181192
          0 0 0 10.849042892 -25.546901703 -0.24434658885
          0.09165532887 -3.040997982 0.0440986678 13.562013626 -25.820842743 2.5478716452e-06
          0.5115852952 -20.664663315 -0.58157074451 -1.4608629942 -16.957151413 4.4105145207e-06
          -0.65485948324 -18.758605957 4.3022178033e-06 -0.16390919685 -14.350331306 0.11586876214
          0.015388566069 -1.483007431 5.2408842066e-07 0.47772443295 -20.602993011 -0.27860540152
          3.4207942486 -22.616580963 3.9269989429e-06 -0.17814511061 -14.55698967 0.038350131363
          0.46780794859 -9.2615804672 3.0474259347e-06 1.5674906969 -20.401111603 0.54676669836
          10.849694252 -25.559352875 2.9051400361e-06 -0.15620350838 -11.895860672 -0.077528484166
          0.10018610209 -3.0497040749 1.1335381487e-06 8.1017589569 -25.284925461 -0.4353890419
          16.249223709 -26.097690582 0.30473282933 0.42133104801 -20.553215027 4.2219180614e-06
          0.20774812996 -4.7208118439 0.11319734156 0.20166754723 -6.9637360573 -0.075298957527
          -0.17536768317 -14.496747971 4.2942065193e-06 4.9422287941 -22.597419739 0.4187361896
          0 0 0 8.1053333282 -25.317438126 -0.21682694554
          0.231722489 -4.7587938309 0.057081218809 13.562397003 -25.807003021 0.27486979961
          -1.4475406408 -16.987520218 0.40015432239 -0.61507111788 -18.791389465 0.31891083717
          0.012370761484 -1.4772673845 -0.022029077634 3.436085701 -22.638050079 0.23626732826
          0.44471395016 -9.2340183258 -0.034914180636 10.849042892 -25.546901703 0.2443523854
          8.1082983017 -25.326929092 3.2775928958e-06 2.0997419357 -22.759395599 -0.53474408388
          0.76254010201 -11.511981964 0.056782942265 0.24279510975 -4.7710661888 1.723097057e-06
          0.091655522585 -3.0409977436 -0.044096414 0.88047087193 -11.636341095 0.11298881471
          0.47772470117 -20.602993011 0.27861380577 2.0685582161 -22.70407486 -0.25718897581
          -0.17814539373 -14.55698967 -0.038341697305 5.4892697334 -25.126569748 -0.40438336134
          16.253356934 -26.053873062 0.61091566086 0 0 0