<?xml version="1.0"?>
<VTKFile type="UnstructuredGrid" version="0.1" byte_order="LittleEndian" header_type="UInt32" compressor="vtkZLibDataCompressor">
  <UnstructuredGrid>
    <Piece NumberOfPoints="6405" NumberOfCells="4800">
      <PointData>
        <DataArray type="Float32" Name="DISPLACEMENT" NumberOfComponents="3" ComponentName0="X-DISPLACEMENT" ComponentName1="Y-DISPLACEMENT" ComponentName2="Z-DISPLACEMENT" format="ascii" RangeMin="0" RangeMax="245.79421854">
          0 0 0 0 0 0
          1.9648003578 -1.1928524971 -0.91156250238 0 0 0
          1.2782398462 -0.69883573055 -0.71035218239 0 0 0
          1.7921925783 -1.3153159618 -0.36298772693 1.1114875078 -0.80027866364 -0.28977459669
          0 0 0 3.531129837 -2.1716320515 -0.93939709663
          0 0 0 3.4788796902 -2.3174247742 -0.48514246941
          2.5686836243 -1.7729803324 -0.78546816111 0 0 0
          0 0 0 1.7982363701 -1.3575356007 2.8591077239e-07
          0.93876206875 -0.46601915359 -0.54982984066 1.1070137024 -0.82109296322 1.904913205e-07
          2.5128552914 -1.8894104958 -0.40107876062 0.80635648966 -0.56071019173 -0.2230720371
          3.4396429062 -2.3586997986 5.5715923963e-07 1.8802256584 -1.4392787218 -0.6181203723
          0 0 0 2.4784269333 -1.9281115532 3.6954403981e-07
          1.8236095905 -1.5470514297 -0.31697747111 0 0 0
          4.9637932777 -3.4287207127 -0.88638353348 0 0 0
          0.79945266247 -0.57864648104 9.7439290414e-08 0 0 0
          0 0 0 1.7921924591 -1.3153157234 0.36298826337
          3.7858762741 -3.0431408882 -0.75267386436 4.9773139954 -3.5360097885 -0.4521188736
          0.65853244066 -0.29889881611 -0.37338256836 1.1114875078 -0.80027854443 0.28977495432
          3.7973437309 -3.1441609859 -0.38363200426 0.57821828127 -0.40053901076 -0.15470354259
          1.7942073345 -1.5759823322 1.7076968106e-07 3.4788792133 -2.3174245358 0.48514357209
          0 0 0 0 0 0
          1.2959430218 -1.2210707664 -0.43878126144 2.8404493332 -2.7362055779 -0.62101608515
          4.9648489952 -3.5750734806 8.2538753077e-07 2.5128550529 -1.8894102573 0.40107947588
          2.8334884644 -2.8322849274 -0.31534123421 0.80635643005 -0.56071007252 0.22307221591
          3.7885694504 -3.1780376434 5.2883837043e-07 1.2398771048 -1.3261386156 -0.22462171316
          0.59093737602 -0.41486498713 7.6993709186e-09 0 0 0
          6.3036599159 -4.8597483635 -0.79892075062 0 0 0
          4.9435453415 -4.5043449402 -0.69643115997 1.8236094713 -1.5470511913 0.31697779894
          6.3385477066 -4.9398226738 -0.40432807803 1.9648003578 -1.1928521395 0.91156297922
          0 0 0 0 0 0
          1.2211450338 -1.3525891304 -2.4991869907e-08 2.824108839 -2.8621096611 2.1532193273e-07
          0.23230320215 -0.19268199801 -0.16845355928 4.9748511314 -4.5834975243 -0.35133525729
          1.2782399654 -0.69883543253 0.71035254002 1.9828675985 -2.5286068916 -0.48695293069
          0 0 0 4.9773135185 -3.5360093117 0.45212048292
          0.18276357651 -0.31694272161 -0.084545820951 1.957575202 -2.6159210205 -0.24806457758
          3.7973434925 -3.1441605091 0.38363301754 0.57821804285 -0.40053889155 0.15470352769
          3.7823870182 -4.2155246735 -0.5952526927 0.49788421392 -1.0885392427 -0.2750325501
          6.3396062851 -4.967830658 1.0635443459e-06 3.531129837 -2.1716313362 0.93939816952
          0 0 0 0 0 0
          3.79652071 -4.2929992676 -0.30024307966 2.5686836243 -1.7729797363 0.78546881676
          4.9795980453 -4.6109614372 6.3730402644e-07 0.4415718019 -1.1887079477 -0.14390289783
          0.93876206875 -0.46601885557 0.54983001947 0.20919461548 -0.34786310792 -7.9899614036e-08
          1.948094964 -2.6441164017 -6.2935143319e-08 2.8334882259 -2.8322846889 0.31534165144
          1.2398768663 -1.3261383772 0.22462168336 3.7974970341 -4.3193144798 1.8902528609e-07
          1.8802255392 -1.439278245 0.61812067032 0.43492081761 -1.218873024 -1.7493086091e-07
          2.7070462704 -4.005739212 -0.49790239334 6.3385467529 -4.939822197 0.40433013439
          4.9637928009 -3.4287195206 0.88638502359 0 0 0
          7.5392775536 -6.4307365417 -0.72368741035 0 0 0
          0 0 0 1.0022424459 -2.383507967 -0.39556145668
          2.7064621449 -4.0799422264 -0.25163564086 7.5746588707 -6.4908189774 -0.36360263824
          6.0339436531 -6.0994739532 -0.6448482275 4.9748506546 -4.5834970474 0.35133647919
          0.05542620644 -0.34950742126 -0.18345093727 0 0 0
          3.7858760357 -3.0431399345 0.75267475843 0.65853220224 -0.29889854789 0.37338250875
          0.96830028296 -2.4571690559 -0.19160151482 0.18276324868 -0.31694251299 0.084545649588
          -0.011622465216 -0.39994585514 -0.067664146423 1.9575749636 -2.6159207821 0.24806445837
          6.066198349 -6.1614937782 -0.32314381003 3.7965202332 -4.2929987907 0.30024340749
          2.7040419579 -4.1066093445 -2.0250631394e-07 7.5808811188 -6.5120158195 1.2491354937e-06
          0.21513126791 -1.2539836168 -0.31393808126 0.44157171249 -1.1887078285 0.14390261471
          0 0 0 4.6997952461 -5.821574688 -0.56470251083
          1.2959427834 -1.2210704088 0.43878129125 2.8404490948 -2.7362048626 0.62101644278
          0.9585005641 -2.4835190773 -2.5973756124e-07 6.0745954514 -6.1830005646 6.6278880695e-07
          0.012342444621 -0.46421092749 -2.3696810558e-07 0.20514047146 -1.2974669933 -0.12940500677
          4.7192878723 -5.8844223022 -0.28336319327 6.3036589622 -4.859746933 0.79892265797
          0 0 0 1.6657062769 -3.8381531239 -0.4132257998
          4.9435443878 -4.5043435097 0.69643229246 0.21189360321 -1.3445425034 -3.1177526694e-07
          1.6555372477 -3.9128675461 -0.20154996216 4.7244057655 -5.9061746597 3.3426083235e-08
          0.23230282962 -0.19268164039 0.16845336556 2.7064619064 -4.0799417496 0.25163522363
          3.4638643265 -5.5963397026 -0.48310139775 7.5746574402 -6.4908175468 0.36360508204
          0.45051178336 -2.4049699306 -0.29096612334 1.9828671217 -2.5286061764 0.48695281148
          0 0 0 0.96830046177 -2.4571690559 0.19160102308
          3.4711239338 -5.6611633301 -0.24264054 -0.011622669175 -0.39994558692 0.06766371429
          0.4617190361 -2.484069109 -0.14145834744 6.0661973953 -6.1614928246 0.32314506173
          3.7823860645 -4.2155237198 0.59525293112 0.49788406491 -1.0885388851 0.27503237128
          8.6791677475 -8.1039381027 -0.66537481546 0 0 0
          1.6436011791 -3.9350998402 -4.1928817041e-07 7.0587711334 -7.7952699661 -0.60275369883
          8.708647728 -8.1514930725 -0.33336699009 0 0 0
          -0.021087458357 -0.60786092281 -0.085566699505 7.0860304832 -7.8453154564 -0.30113250017
          3.4710764885 -5.6828141212 -5.2151051477e-07 -0.029463477433 -0.64513099194 -0.069798357785
          0.20514026284 -1.2974667549 0.12940444052 0.45342501998 -2.5089597702 -3.4100841617e-07
          4.7192869186 -5.8844218254 0.28336319327 5.5839104652 -7.5335302353 -0.53745859861
          -0.28300371766 -1.4032257795 -0.208206743 8.7155342102 -8.1682367325 1.3466715245e-06
          0 0 0 -0.27432957292 -1.4749199152 -0.090034916997
          5.6022100449 -7.5850257874 -0.26862514019 7.0941700935 -7.8627276421 5.6518871361e-07
          0.012061209418 -0.64903950691 -4.8140076814e-08 2.7070453167 -4.0057382584 0.49790194631
          2.3010001183 -5.4111175537 -0.38818213344 7.5392756462 -6.4307341576 0.72368961573
          0 0 0 0.69712865353 -3.7396306992 -0.24226421118
          1.6555374861 -3.9128675461 0.20154906809 1.0022425652 -2.3835077286 0.39556103945
          6.0339422226 -6.0994720459 0.64484930038 0.055425897241 -0.34950700402 0.18345050514
          0.69572645426 -3.8344113827 -0.13673064113 2.2963514328 -5.482591629 -0.19585354626
          3.4711232185 -5.6611633301 0.24263948202 0.46171870828 -2.4840688705 0.14145761728
          5.607861042 -7.6026835442 -2.8028844667e-07 0.013631381094 -1.5407022238 -5.4296850749e-07
          4.2123680115 -7.3267493248 -0.46946403384 -0.15566237271 -2.5866122246 -0.22171081603
          0.21513079107 -1.25398314 0.31393745542 8.7086448669 -8.1514921188 0.33336955309
          4.6997933388 -5.8215732574 0.56470239162 0 0 0
          2.2937908173 -5.5027561188 -9.0179355539e-07 0.69241434336 -3.8519501686 -4.4997267423e-07
          4.2199201584 -7.3782176971 -0.23410175741 7.0860285759 -7.8453145027 0.30113351345
          -0.187129125 -2.6446473598 -0.096200026572 -0.029464174062 -0.6451305747 0.069797977805
          1.6657061577 -3.838152647 0.41322475672 4.2222795486 -7.3944206238 -1.07897813e-06
          5.6022081375 -7.5850253105 0.26862451434 -0.27433145046 -1.4749189615 0.090033970773
          -0.1768373698 -2.6706106663 -6.5294392471e-07 9.7402296066 -9.8549060822 -0.62316179276
          0 0 0 9.7626867294 -9.895357132 -0.31187862158
          3.463862896 -5.5963387489 0.48310026526 8.0234689713 -9.5659284592 -0.56984907389
          0.4505110085 -2.4049692154 0.29096519947 0.97979462147 -5.2788023949 -0.26202914119
          0.0036672072019 -0.78502082825 -0.066103093326 0.695725739 -3.8344113827 0.13672956824
          2.296350956 -5.482591629 0.19585177302 0 0 0
          8.0446662903 -9.6087017059 -0.28414765 0.9685099721 -5.3608384132 -0.14191578329
          -0.018022116274 -0.80950075388 -0.027464829385 2.8917968273 -7.1780023575 -0.39458593726
          0.0078914063051 -3.9277210236 -0.28111505508 8.6791648865 -8.1039352417 0.66537708044
          0 0 0 7.0587682724 -7.7952675819 0.60275441408
          9.7688045502 -9.9095134735 1.27856174e-06 -0.041450537741 -3.9483406544 -0.11136448383
          2.8820252419 -7.223502636 -0.19881607592 -0.021088605747 -0.60785979033 0.085565552115
          6.4211597443 -9.3268823624 -0.51385462284 -0.029594548047 -1.6736344099 -0.10208611935
          0 0 0 4.2199187279 -7.378218174 0.23409959674
          -0.18712958694 -2.6446471214 0.096198782325 8.0511322021 -9.6233901978 2.7434435879e-07
          0.97782731056 -5.3839039803 -1.1046184909e-06 6.4375395775 -9.3700523376 -0.2557425797
          -0.042960334569 -1.7305722237 -0.047465685755 -0.011375302449 -0.80413144827 -4.925420285e-07
          5.5839076042 -7.5335283279 0.53745782375 -0.28300535679 -1.4032247066 0.20820607245
          2.881455183 -7.2371935844 -1.7096047031e-06 -0.021664621308 -3.9851841927 -1.1959157291e-06
          2.3009991646 -5.4111175537 0.3881803751 6.4422831535 -9.3845748901 -7.784822742e-07
          -0.079359829426 -1.7532706261 -1.3738248299e-06 0.69712734222 -3.7396304607 0.24226281047
          9.7626829147 -9.8953552246 0.31188103557 4.9140353203 -9.156493187 -0.45927214622
          0 0 0 -0.10731499642 -2.7714569569 -0.13086822629
          4.923699379 -9.1959495544 -0.22781167924 8.0446634293 -9.6086997986 0.28414803743
          -0.018022716045 -0.80950009823 0.027463726699 0.96850895882 -5.3608384132 0.14191374183
          -0.11545628309 -2.8320949078 -0.058532483876 4.2123651505 -7.326748848 0.46946191788
          1.4112131596 -7.0541667938 -0.34962150455 2.882024765 -7.2235035896 0.19881285727
          -0.15566322207 -2.5866119862 0.22170978785 -0.041450437158 -3.9483408928 0.11136239767
          0.26943179965 -5.4713001251 -0.37799331546 1.3840203285 -7.0897417068 -0.16823349893
          4.9258494377 -9.2091283798 -1.8076121933e-06 6.4375367165 -9.3700523376 0.25574091077
          -0.04296124354 -1.7305711508 0.047462876886 0.24251329899 -5.4594955444 -0.14744652808
          -0.10933953524 -2.8705403805 -2.3182808491e-06 10.745077133 -11.667920113 -0.59551811218
          0 0 0 0.010932695121 -0.86505913734 -0.029037641361
          1.3805942535 -7.1029701233 -1.9098292796e-06 3.4687330723 -9.0561256409 -0.41420939565
          8.9392290115 -11.392035484 -0.54476606846 9.7402248383 -9.8549022675 0.62316375971
          0 0 0 0 0 0
          0.25491565466 -5.4962053299 -2.0353218133e-06 -0.1622839123 -4.0919742584 -0.12499603629
          10.760877609 -11.706055641 -0.29767039418 3.4686584473 -9.0850162506 -0.20625971258
          8.9545078278 -11.431805611 -0.27117040753 8.0234642029 -9.5659255981 0.56984901428
          -0.0038510940503 -0.88678258657 -0.012441817671 0.97979271412 -5.2788028717 0.26202741265
          0.0036654979922 -0.78501915932 0.066101431847 -0.19787527621 -4.153028965 -0.097927115858
          4.9236969948 -9.1959495544 0.22780804336 -0.11545730382 -2.8320939541 0.058527931571
          7.2115101814 -11.169322014 -0.48986956477 2.8917951584 -7.178003788 0.39458304644
          0.0078912051395 -3.9277215004 0.28111377358 0 0 0
          -0.024433437735 -1.8359191418 -0.050154387951 10.76599884 -11.719165802 8.9044664264e-07
          -0.0089521044865 -0.89387392998 -1.0942659401e-06 3.4697265625 -9.0978937149 -2.6830819024e-06
          7.2245531082 -11.208420753 -0.2422902137 6.4211544991 -9.3268795013 0.51385265589
          8.9589729309 -11.44462204 -3.4555000639e-07 -0.029597047716 -1.6736316681 0.10208283365
          -0.18950037658 -4.1571469307 -2.9849200018e-06 -0.040935702622 -1.8718954325 -0.022214893252
          1.3840212822 -7.0897436142 0.16823011637 0.2425146848 -5.4594964981 0.14744344354
          0.61186146736 -7.1817016602 -0.39526936412 7.2262296677 -11.219941139 -1.5474672637e-06
          -0.042589183897 -1.8856838942 -2.735591579e-06 0.63005816936 -7.1896438599 -0.17562372983
          5.5707464218 -11.021388054 -0.43628373742 0 0 0
          -0.082874178886 -2.9687383175 -0.063847087324 10.760872841 -11.70605278 0.2976719439
          -0.0038517741486 -0.88678175211 0.012439548038 3.4686572552 -9.085018158 0.20625455678
          5.581445694 -11.055252075 -0.21440370381 4.9140310287 -9.1564922333 0.45926842093
          8.9545030594 -11.431803703 0.27116948366 2.0400490761 -8.9600515366 -0.41264542937
          -0.40190008283 -5.7358903885 -0.41411453485 -0.10731729865 -2.7714533806 0.1308632046
          -0.09958281368 -3.0165574551 -0.030498724431 -0.19787563384 -4.1530284882 0.097921088338
          2.0196220875 -8.9760398865 -0.19268459082 -0.38243171573 -5.7087826729 -0.18612195551
          0.63011795282 -7.2099175453 -2.3416737349e-06 1.4112137556 -7.054169178 0.34961953759
          7.2245488167 -11.2084198 0.24228690565 0.26943269372 -5.4713015556 0.37799143791
          5.5795326233 -11.065948486 -2.7516537102e-06 -0.040937036276 -1.871894002 0.022209269926
          -0.10645645857 -3.0325958729 -4.4957241698e-06 1.9979770184 -8.9800901413 -2.8390181797e-06
          -0.35510587692 -5.7112531662 -3.5277582811e-06 -0.16856771708 -4.3183107376 -0.09597633779
          4.0301175117 -10.936127663 -0.40029484034 10.745069504 -11.667915344 0.59551900625
          0 0 0 0.63006013632 -7.1896457672 0.17561969161
          0.010930249467 -0.86505711079 0.029034698382 -0.18078444898 -4.3674082756 -0.047388993204
          3.4687299728 -9.0561265945 0.41420465708 8.9392213821 -11.392030716 0.54476451874
          4.0367636681 -10.962677956 -0.19616982341 11.718592644 -13.541288376 -0.58054882288
          0 0 0 -0.16228447855 -4.0919704437 0.12498996407
          11.728116035 -13.580586433 -0.28980639577 -0.0091859642416 -0.90873420238 -0.0034129116684
          9.8232707977 -13.269697189 -0.52697753906 5.5814418793 -11.055252075 0.21439804137
          0 0 0 -0.099584296346 -3.0165557861 0.0304896608
          9.8333082199 -13.310199738 -0.26191189885 -0.012690766715 -0.92802792788 -0.00054721295601
          2.0196256638 -8.9760427475 0.1926792264 -0.38242956996 -5.7087845802 0.18611846864
          7.2115020752 -11.169319153 0.48986566067 -0.18244040012 -4.3865041733 -6.0321035562e-06
          4.0312142372 -10.973329544 -3.8922016756e-06 -0.024437118322 -1.8359155655 0.050148427486
          0.91021198034 -8.9328365326 -0.31794854999 -0.034976549447 -1.9218848944 -0.0096027078107
          7.9701170921 -13.048792839 -0.46796539426 -0.16872024536 -7.4240350723 -0.37908610702
          11.731815338 -13.593663216 -7.7264601828e-08 0 0 0
          0.9324426055 -8.9755630493 -0.17244896293 9.8366966248 -13.322649002 -1.5047279476e-06
          -0.013265293092 -0.93398058414 -1.8251237179e-06 7.9767913818 -13.085097313 -0.23025250435
          -0.040594439954 -1.9514253139 -0.0035394555889 -0.15425503254 -7.4332780838 -0.17578628659
          0.61186218262 -7.1817035675 0.39526593685 0.9359254837 -8.9753894806 -2.5883296075e-06
          -0.20153731108 -5.8291511536 -0.10031542182 -0.18078562617 -4.3674068451 0.047377090901
          2.6483206749 -10.864830017 -0.37252703309 7.9748926163 -13.091152191 -2.7915120882e-06
          5.5707392693 -11.0213871 0.43627768755 4.0367617607 -10.962680817 0.1961620599
          -0.13008891046 -7.4380164146 -3.9228102651e-06 -0.043403379619 -1.9618245363 -4.3522454689e-06
          -0.082878001034 -2.9687335491 0.063837900758 11.72810936 -13.580583572 0.28980597854
          6.1956443787 -12.908120155 -0.40270125866 -0.21943417192 -5.8997507095 -0.072274796665
          -0.074864536524 -3.0850703716 -0.016903078184 2.6471917629 -10.889558792 -0.18217858672
          2.0400521755 -8.9600553513 0.41264051199 -0.40189987421 -5.7358913422 0.41411116719
          0 0 0 -0.081272318959 -3.1220793724 -0.0068993172608
          9.8333024979 -13.310196877 0.26190859079 -0.012691592798 -0.92802709341 0.00054352951702
          6.1879835129 -12.936455727 -0.19227296114 -0.22704389691 -5.8985219002 -7.0568794399e-06
          2.6352891922 -10.895504951 -4.6107661547e-06 0.93244361877 -8.975566864 0.17244397104
          6.1689543724 -12.938537598 -3.9617016228e-06 -0.083870761096 -3.135638237 -7.1039685281e-06
          7.9767842293 -13.085095406 0.23024657369 -0.040596105158 -1.9514240026 0.0035306604113
          -0.1542519778 -7.4332818985 0.17577968538 -0.16857108474 -4.3183054924 0.095964469016
          4.0301127434 -10.93612957 0.40028721094 4.5704102516 -12.840596199 -0.36086818576
          11.7185812 -13.541282654 0.58054757118 0 0 0
          -0.11046107858 -4.4226346016 -0.02024910599 -0.009189311415 -0.90873211622 0.0034085148945
          9.8232603073 -13.269692421 0.52697330713 -0.21943445504 -5.8997507095 0.072260260582
          2.6471936703 -10.88956356 0.18216966093 4.5559587479 -12.862944603 -0.16652747989
          0.090669371188 -9.1850070953 -0.37941730022 -0.11973781139 -4.4683856964 -0.010519321077
          -0.081274308264 -3.1220777035 0.0068851844408 6.1879758835 -12.93645668 0.19226458669
          0.077133662999 -9.1766328812 -0.15179103613 1.2269732952 -10.782824516 -0.30320850015
          -0.32834625244 -7.4718585014 -0.079797007143 12.680130005 -15.487114906 -0.57494789362
          0 0 0 10.693018913 -15.214800835 -0.51754546165
          0.9102114439 -8.9328422546 0.31794238091 -0.034981619567 -1.9218813181 0.0095937056467
          7.9701046944 -13.048789024 0.46795856953 -0.34522864223 -7.5548772812 -0.11474499106
          1.2238152027 -10.821472168 -0.15187476575 -0.16871881485 -7.4240379333 0.37908151746
          12.684699059 -15.528668404 -0.28669181466 0 0 0
          -0.12347587198 -4.4835443497 -9.7351021395e-06 4.5291471481 -12.871383667 -5.5631958276e-06
          -0.028179677203 -0.91967731714 0.021931616589 10.697396278 -15.257187843 -0.25767290592
          -0.022398194298 -0.93793052435 0.0092992121354 0.10324726254 -9.2004165649 -6.6105931182e-06
          8.7172574997 -14.982644081 -0.45564675331 -0.30099505186 -7.55666399 -8.6781183199e-06
          1.230353713 -10.837975502 -5.1414999689e-06 12.68712616 -15.54218483 -1.9649214664e-06
          0 0 0 -0.049135308713 -1.9430463314 0.027280671522
          8.7221689224 -15.021307945 -0.22435733676 10.699080467 -15.270266533 -3.5017044411e-06
          -0.20153868198 -5.8291463852 0.10030097514 2.6483194828 -10.864834785 0.37251824141
          -0.022363772616 -0.94327831268 -2.6056300158e-06 -0.046332206577 -1.9704916477 0.014522595331
          6.1956319809 -12.908120155 0.40269166231 -0.074870124459 -3.0850653648 0.016889123246
          -0.15668998659 -5.940237999 -0.026699058712 3.1245424747 -12.818029404 -0.34271103144
          -0.11973953992 -4.4683842659 0.010499998927 4.5559544563 -12.862947464 0.16651636362
          -0.16758020222 -5.9931035042 -0.015183180571 3.1150515079 -12.823462486 -0.16537076235
          0.077140055597 -9.1766386032 0.15178090334 8.7251443863 -15.029380798 -4.7380603974e-06
          -0.045413333923 -1.9797663689 -6.0201318774e-06 6.7921104431 -14.828304291 -0.39126846194
          -0.34522637725 -7.5548787117 0.11472868919 1.2238171101 -10.821475983 0.15186521411
          12.684690475 -15.528665543 0.28668755293 0 0 0
          -0.063094377518 -3.1082348824 0.029329834506 6.7459383011 -14.846895218 -0.19101729989
          10.697387695 -15.257184982 0.25766551495 -0.063960015774 -3.14265275 0.015659436584
          -0.1669511348 -6.0134515762 -1.2177136341e-05 3.1033916473 -12.825949669 -7.0110795605e-06
          -0.022399097681 -0.93792998791 -0.009304381907 8.7221593857 -15.021306038 0.22434735298
          6.6925525665 -14.835413933 -6.0277234297e-06 -0.064586170018 -3.154361248 -9.7158144854e-06
          4.5704011917 -12.840600014 0.36085686088 0.3828651011 -11.019405365 -0.40784877539
          -0.046334084123 -1.9704908133 -0.01453465689 -0.11046609282 -4.4226288795 0.020230315626
          -0.68564015627 -9.4600143433 -0.39542302489 0.38150382042 -10.999269485 -0.15111139417
          0.090674802661 -9.1850137711 0.37941044569 -0.65225595236 -9.440662384 -0.18738715351
          -0.16758090258 -5.9931025505 0.015159136616 3.1150512695 -12.823469162 0.1653573364
          1.2269730568 -10.782829285 0.30320253968 -0.32834345102 -7.4718546867 0.079780593514
          -0.070781283081 -4.4457788467 0.027327815071 5.0550022125 -14.786438942 -0.34292933345
          12.680114746 -15.487108231 0.57494264841 0 0 0
          10.693002701 -15.214795113 0.51753693819 -0.074934400618 -4.4846348763 0.014810963534
          0.37507283688 -11.02393055 -9.1626379799e-06 -0.22432629764 -7.6602673531 -0.061225749552
          1.7011320591 -12.789668083 -0.3697077632 4.9717078209 -14.783632278 -0.16832096875
          -0.02818383649 -0.91967558861 -0.021937498823 -0.37906578183 -9.4007120132 -8.865383279e-06
          6.7459244728 -14.846896172 0.19100478292 -0.063962213695 -3.1426517963 -0.015678664669
          1.6438416243 -12.766647339 -0.1631809324 -0.22721685469 -7.7129511833 -0.031429018825
          8.7172403336 -14.982639313 0.45563545823 -0.076226167381 -4.4989585876 -1.3332363778e-05
          4.8643875122 -14.765892029 -7.9505862232e-06 -0.049141544849 -1.9430434704 -0.027292709798
          1.5858769417 -12.742742538 -6.7581358962e-06 13.639379501 -17.520895004 -0.57421666384
          0 0 0 -0.21547903121 -7.7208948135 -1.4237410142e-05
          13.640446663 -17.563642502 -0.28640764952 0 0 0
          0.38151484728 -10.999277115 0.15109713376 11.557066917 -17.247652054 -0.5158316493
          -0.15669327974 -5.9402313232 0.026675740257 3.1245398521 -12.81803894 0.34269949794
          -0.047734480351 -0.89906954765 0.047605194151 -0.65224707127 -9.4406709671 0.18737201393
          11.558226585 -17.29079628 -0.25753167272 -0.032720595598 -0.91779857874 0.019844189286
          6.7920880318 -14.828303337 0.39125460386 13.641347885 -17.577590942 -5.13298437e-06
          -0.074936240911 -4.4846339226 -0.014837232418 9.4742870331 -17.005144119 -0.45654630661
          -0.064509920776 -1.9041216373 0.065554007888 4.9717001915 -14.783636093 0.16830509901
          0 0 0 3.5634160042 -14.78660965 -0.35705038905
          -0.068935289979 -5.9712057114 0.018311856315 -0.063101127744 -3.1082310677 -0.029348473996
          -0.053989905864 -1.9320350885 0.033264763653 9.4725294113 -17.04873085 -0.22780099511
          11.559393883 -17.304740906 -6.6503539529e-06 1.6438524723 -12.766657829 0.16316832602
          -0.074516735971 -6.0125246048 0.0097315665334 3.5453138351 -14.77973938 -0.17604188621
          -0.22721581161 -7.7129516602 0.031400937587 -0.031679812819 -0.92293906212 -3.3752828585e-06
          -0.46091175079 -11.285328865 -0.40254741907 9.4725408554 -17.064226151 -7.73517786e-06
          0.38287484646 -11.019411087 0.40783929825 -0.050563521683 -1.9411309958 -7.5742550507e-06
          -0.074737243354 -6.0280628204 -1.6755848264e-05 -0.41914096475 -11.281417847 -0.17209473252
          3.5280621052 -14.773785591 -8.8772121671e-06 -0.68563348055 -9.4600200653 0.39541399479
          13.640436172 -17.563638687 0.28639701009 7.3702769279 -16.808486938 -0.40190005302
          -0.24532943964 -9.4828634262 -0.061604898423 0 0 0
          -0.061972983181 -3.0519075394 0.074495121837 0.67772072554 -12.885356903 -0.34607484937
          -0.05748167634 -3.0864362717 0.038449302316 7.3565907478 -16.841396332 -0.2055311501
          11.558215141 -17.290794373 0.25751793385 -0.23680049181 -9.5567789078 -0.062827989459
          0.69813704491 -12.894284248 -0.17252078652 -0.03272144869 -0.91779851913 -0.019850803539
          -0.070787400007 -4.4457745552 -0.027352932841 5.0549874306 -14.786444664 0.34291401505
          -0.39829030633 -11.259570122 -1.4341676433e-05 -0.22432696819 -7.660261631 0.061199147254
          1.7011474371 -12.789683342 0.36969852448 7.3438763618 -16.847515106 -8.6919399109e-06
          9.4725160599 -17.048728943 0.22778497636 -0.26271396875 -9.5526781082 -1.6024221623e-05
          -0.053991708905 -1.9320350885 -0.033279821277 -0.055971316993 -3.0976164341 -1.1994925444e-05
          -0.074517548084 -6.012524128 -0.0097645241767 3.5453140736 -14.779746056 0.17602476478
          0.68137568235 -12.875973701 -8.2509204731e-06 2.2638127804 -14.769737244 -0.36308667064
          -0.048019498587 -7.6724495888 0.0092328349128 2.2182710171 -14.754014015 -0.17460273206
          -0.053569223732 -7.7191491127 0.00020273293194 13.639358521 -17.520887375 0.57420480251
          0 0 0 -0.41912308335 -11.281432152 0.17207275331
          -0.039132744074 -4.3773608208 0.076232075691 5.4257678986 -16.712293625 -0.35558801889
          -0.040504451841 -4.4159193039 0.038594949991 11.557045937 -17.247646332 0.51581656933
          -0.047739185393 -0.89906871319 -0.047612417489 5.3528838158 -16.713079453 -0.20024807751
          7.3565711975 -16.841396332 0.20551300049 -0.23679625988 -9.5567827225 0.062796242535
          -0.057483650744 -3.0864365101 -0.038472924381 0.69814795256 -12.894294739 0.17250703275
          2.1572537422 -14.7259655 -8.8015631263e-06 -0.052918277681 -7.7368760109 -2.0046993086e-05
          9.4742631912 -17.005140305 0.45652869344 -0.064516738057 -1.904120326 -0.065568752587
          3.5634152889 -14.786617279 0.35703495145 -0.040477331728 -4.4283547401 -1.6216279619e-05
          -0.068939723074 -5.9712014198 -0.018343051895 5.217610836 -16.680379868 -9.8643195088e-06
          14.59727478 -19.650409698 -0.57472610474 0 0 0
          -0.46089553833 -11.285336494 0.40252903104 2.2182831764 -14.754022598 0.17458626628
          0 0 0 12.420698166 -19.3770504 -0.51748079062
          -0.45313337445 -11.315080643 -0.014939456247 -0.053568124771 -7.7191500664 -0.00024199153995
          -0.063582569361 -0.8448035121 0.076153486967 -0.17717692256 -13.130862236 -0.35378909111
          14.597084999 -19.692977905 -0.2870464623 7.3702454567 -16.808485031 0.4018804431
          12.419962883 -19.419845581 -0.2588340342 -0.039308521897 -0.86481553316 0.031183069572
          -0.24532428384 -9.4828605652 0.061573252082 -0.41640475392 -11.413490295 -0.12270445377
          -0.061980046332 -3.0519058704 -0.074517652392 4.0051732063 -16.691848755 -0.35843282938
          -0.040505778044 -4.4159197807 -0.038626801223 0.67773085833 -12.885368347 0.34605816007
          -0.0045515149832 -5.8944792747 0.065125361085 5.352871418 -16.713085175 0.20022784173
          -0.17312930524 -13.142091751 -0.13367275894 -0.0088275438175 -5.9350252151 0.033875841647
          4.0073523521 -16.70268631 -0.16527883708 10.237486839 -19.130281448 -0.46200945973
          14.597194672 -19.707019806 -9.9071476143e-06 -0.078570060432 -1.8096460104 0.10516873002
          0 0 0 10.235922813 -19.173772812 -0.23210157454
          -0.059866324067 -1.839209795 0.053586069494 12.420036316 -19.434419632 -1.1262659427e-05
          0.95634400845 -14.715424538 -0.31155851483 -0.28808945417 -11.429207802 -1.7323272914e-05
          -0.1657140553 -13.135703087 -1.5648551198e-05 -0.038177542388 -9.5068817139 -0.01176923234
          -0.037180963904 -0.87023192644 -4.0648546928e-06 0.93802529573 -14.728288651 -0.14670236409
          4.0045547485 -16.707828522 -1.0739000572e-05 -0.029732696712 -9.5682535172 -0.0017782698851
          -0.0077266092412 -5.9470162392 -2.029472671e-05 2.2638232708 -14.76974678 0.36307063699
          10.235761642 -19.189964294 -1.2000019524e-05 -0.048020854592 -7.6724457741 -0.0092699723318
          -0.053782142699 -1.8483742476 -8.855858141e-06 8.0223741531 -18.90489006 -0.40776383877
          14.597070694 -19.692974091 0.28702616692 0.90419209003 -14.722745895 -9.9835169749e-06
          -0.066158890724 -2.9248063564 0.12452910095 -0.03913859278 -4.3773593903 -0.076262116432
          -0.01750096865 -9.5975646973 -2.2951513529e-05 5.4257502556 -16.712303162 0.35556721687
          0 0 0 8.0302801132 -18.948656082 -0.20797042549
          -0.056418385357 -2.9608347416 0.06273625046 12.419948578 -19.419843674 0.25881099701
          -0.41639536619 -11.413496017 0.12266946584 -0.17310877144 -13.142106056 0.13364860415
          -0.039309095591 -0.86481618881 -0.03119094111 4.0073547363 -16.702692032 0.16525869071
          -0.0088275531307 -5.9350266457 -0.033915434033 10.235906601 -19.173770905 0.23207692802
          8.0426712036 -18.968582153 -1.226344466e-05 2.7012577057 -16.689210892 -0.33238065243
          0.047224197537 -7.5830206871 0.048770569265 -0.052836097777 -2.9725854397 -1.3713113731e-05
          -0.059867605567 -1.8392111063 -0.053603600711 0.054350864142 -7.629503727 0.025491047651