<?xml version="1.0"?>
<VTKFile type="UnstructuredGrid" version="0.1" byte_order="LittleEndian" header_type="UInt32" compressor="vtkZLibDataCompressor">
  <UnstructuredGrid>
    <Piece NumberOfPoints="6405" NumberOfCells="4800">
      <PointData>
        <DataArray type="Float32" Name="DISPLACEMENT" NumberOfComponents="3" ComponentName0="X-DISPLACEMENT" ComponentName1="Y-DISPLACEMENT" ComponentName2="Z-DISPLACEMENT" format="ascii" RangeMin="0" RangeMax="291.65986726">
          0 0 0 0 0 0
          2.2983260155 -1.420353651 -1.0533914566 0 0 0
          1.4270960093 -0.84557533264 -0.78200852871 0 0 0
          2.1065592766 -1.5797811747 -0.41609710455 1.2420108318 -0.97717994452 -0.31831103563
          0 0 0 4.1128225327 -2.7103326321 -1.0668735504
          0 0 0 4.060426712 -2.8915176392 -0.54933387041
          2.8578391075 -2.2680506706 -0.86818784475 0 0 0
          0 0 0 2.1154251099 -1.6295956373 1.1989008897e-07
          0.97088772058 -0.57051330805 -0.55296188593 1.2373590469 -0.99962025881 7.8354638333e-08
          2.7996482849 -2.4123687744 -0.44194301963 0.83000856638 -0.68780463934 -0.22545020282
          4.0162415504 -2.9417688847 4.2199121708e-07 1.9382601976 -1.9420999289 -0.65925908089
          0 0 0 2.7633471489 -2.4583215714 3.2611325196e-07
          1.8692131042 -2.0671265125 -0.33883225918 0 0 0
          5.724978447 -4.3749279976 -0.9858328104 0 0 0
          0.82469022274 -0.70274811983 -1.0371649317e-08 0 0 0
          0 0 0 2.1065592766 -1.5797811747 0.41609737277
          4.1848006248 -3.9560105801 -0.82479566336 5.7484550476 -4.5033922195 -0.50248217583
          0.37246948481 -0.38630819321 -0.31161049008 1.2420110703 -0.97717994452 0.31831124425
          4.2039422989 -4.0764803886 -0.42042410374 0.24182327092 -0.50758218765 -0.14844216406
          1.8389835358 -2.1054358482 1.7607339942e-07 4.0604271889 -2.8915176392 0.54933476448
          0 0 0 0 0 0
          0.98359596729 -1.7510350943 -0.51472145319 2.9252946377 -3.6380183697 -0.6728926897
          5.7346143723 -4.5495147705 8.7333648935e-07 2.7996487617 -2.412368536 0.44194370508
          2.9209840298 -3.7524085045 -0.34229654074 0.8300088644 -0.68780457973 0.22545023263
          4.1952013969 -4.1169538498 7.1499181331e-07 0.91781765223 -1.8537906408 -0.25264677405
          0.22871342301 -0.52012139559 -1.3187776915e-07 0 0 0
          7.1929969788 -6.2469410896 -0.86541581154 0 0 0
          5.4395122528 -5.8607883453 -0.75034791231 1.8692137003 -2.0671262741 0.33883267641
          7.2398467064 -6.3364577293 -0.43829569221 2.2983264923 -1.420353651 1.0533918142
          0 0 0 0 0 0
          0.89355903864 -1.8907574415 -2.6326134162e-08 2.9103138447 -3.7900505066 5.1903987242e-07
          0.18654459715 -0.57264941931 -0.34136033058 5.4805841446 -5.9505667686 -0.37907862663
          1.4270964861 -0.84557521343 0.78200882673 1.8257659674 -3.4057400227 -0.51625537872
          0 0 0 5.7484555244 -4.5033917427 0.50248396397
          0.16333575547 -0.63463288546 -0.14585660398 1.8081847429 -3.5238468647 -0.25599724054
          4.2039432526 -4.0764799118 0.42042556405 0.24182376266 -0.50758200884 0.14844200015
          3.9553992748 -5.5285515785 -0.63128465414 0.43009462953 -1.7671502829 -0.33087772131
          7.2409310341 -6.3678460121 1.4400421833e-06 4.1128234863 -2.7103323936 1.0668745041
          0 0 0 0 0 0
          3.9705927372 -5.621984005 -0.31891912222 2.8578400612 -2.2680501938 0.86818861961
          5.4868383408 -5.9816594124 1.2153391253e-06 0.44536298513 -1.895078063 -0.160446316
          0.97088825703 -0.57051312923 0.55296212435 0.18043634295 -0.69336593151 -5.3576798109e-07
          1.7885346413 -3.5540575981 2.9817846325e-07 2.9209849834 -3.7524080276 0.34229761362
          0.91781872511 -1.8537904024 0.25264677405 3.9701170921 -5.6518001556 9.6370069969e-07
          1.9382612705 -1.942099452 0.65925961733 0.43173572421 -1.9320523739 -3.0537614748e-07
          2.5909574032 -5.2585911751 -0.48794201016 7.2398476601 -6.3364572525 0.43829861283
          5.7249798775 -4.3749275208 0.98583471775 0 0 0
          8.5111131668 -8.2710838318 -0.76213562489 0 0 0
          0 0 0 0.69117391109 -3.2929430008 -0.26216185093
          2.5771358013 -5.3607597351 -0.24953223765 8.5563602448 -8.3297996521 -0.38342791796
          6.6113185883 -7.9214015007 -0.68571323156 5.4805850983 -5.9505662918 0.37908107042
          -0.35555878282 -0.71744781733 -0.21895237267 0 0 0
          4.1848020554 -3.9560098648 0.82479721308 0.37247028947 -0.38630783558 0.31161057949
          0.67217648029 -3.4323630333 -0.15385223925 0.16333666444 -0.63463264704 0.14585566521
          -0.3730096519 -0.79469162226 -0.10695421696 1.808185935 -3.5238463879 0.25599783659
          6.6506667137 -7.9835538864 -0.34342959523 3.9705936909 -5.6219835281 0.31892108917
          2.5723640919 -5.3890590668 6.8858543045e-07 8.5630693436 -8.3511095047 2.1060118343e-06
          -0.19627739489 -2.0032951832 -0.25381520391 0.44536399841 -1.8950777054 0.16044569016
          0 0 0 4.9483551979 -7.6314992905 -0.60487109423
          0.98359763622 -1.7510344982 0.514721632 2.9252960682 -3.638017416 0.67289382219
          0.66142046452 -3.4580230713 5.0765169846e-08 6.6607208252 -8.0053787231 1.8152481971e-06
          -0.38102528453 -0.82142859697 -1.037304969e-06 -0.25993028283 -2.0839967728 -0.095912866294
          4.9633564949 -7.6944899559 -0.30215397477 7.1929988861 -6.246940136 0.86541885138
          0 0 0 0.98891294003 -5.0762734413 -0.32285100222
          5.4395141602 -5.8607869148 0.75035041571 -0.24936766922 -2.1252205372 -9.0434338063e-07
          0.96002656221 -5.1885390282 -0.1760327667 4.968129158 -7.7151474953 1.4895628055e-06
          0.18654586375 -0.57264870405 0.34135964513 2.5771369934 -5.3607587814 0.24953360856
          3.3786730766 -7.4210357666 -0.519921422 8.5563611984 -8.3297986984 0.38343217969
          0.035307832062 -3.6024782658 -0.35891532898 1.8257681131 -3.405739069 0.51625591516
          0 0 0 0.67217731476 -3.4323625565 0.15385226905
          3.3609585762 -7.4757785797 -0.26110211015 -0.37300854921 -0.79469144344 0.1069521755
          -0.057550504804 -3.6137053967 -0.1338558495 6.6506681442 -7.9835529327 0.34343326092
          3.9554014206 -5.528550148 0.63128662109 0.43009635806 -1.76714921 0.33087700605
          9.6905651093 -10.382452011 -0.68352288008 0 0 0
          0.96785461903 -5.2194671631 3.3445800796e-07 7.6872348785 -10.071273804 -0.6354136467
          9.7268028259 -10.420460701 -0.34314191341 0 0 0
          0.047194834799 -1.0262987614 -0.093717388809 7.7194747925 -10.112363815 -0.31707668304
          3.360355854 -7.4943590164 1.1105886415e-06 -0.0021794978529 -1.0808979273 -0.036752402782
          -0.25992923975 -2.0839962959 0.095911078155 -0.029899241403 -3.6686389446 -6.7783309987e-07
          4.9633579254 -7.6944894791 0.30215698481 5.8695602417 -9.8269662857 -0.58650577068
          -0.03014212288 -2.2457191944 -0.17581436038 9.7343654633 -10.434774399 2.8641622976e-06
          0 0 0 -0.071632310748 -2.3045933247 -0.082158274949
          5.8866457939 -9.8661594391 -0.29186236858 7.7289361954 -10.127391815 2.5129065762e-06
          -0.0047587971203 -1.0965137482 -5.9867346636e-07 2.5909593105 -5.2585902214 0.48794338107
          1.5991511345 -7.2398877144 -0.47504448891 8.5111160278 -8.2710828781 0.76213997602
          0 0 0 0.35847845674 -5.3620958328 -0.5278840661
          0.96002739668 -5.1885385513 0.17603345215 0.69117563963 -3.2929418087 0.26216173172
          6.6113209724 -7.9214000702 0.68571698666 -0.35555714369 -0.71744674444 0.21895030141
          0.31064745784 -5.3241305351 -0.20362699032 1.5594166517 -7.2790336609 -0.2275108397
          3.3609597683 -7.4757781029 0.26110440493 -0.057549279183 -3.6137046814 0.13385461271
          5.8922214508 -9.8802185059 2.1280445708e-06 -0.091243140399 -2.3228151798 -8.7841505092e-07
          4.1518192291 -9.6735830307 -0.54566866159 -0.036828458309 -3.7711355686 -0.21390745044
          -0.19627550244 -2.0032939911 0.25381350517 9.7268037796 -10.420460701 0.34314766526
          4.9483575821 -7.63149786 0.60487419367 0 0 0
          1.5582773685 -7.2962555885 7.009912224e-07 0.32855814695 -5.3722543716 -4.0392606593e-07
          4.1521034241 -9.6999731064 -0.27362883091 7.719476223 -10.112362862 0.31708174944
          -0.09929408133 -3.8395755291 -0.14926920831 -0.0021792673506 -1.0808975697 0.036751233041
          0.98891466856 -5.0762720108 0.32285177708 4.1537218094 -9.7134208679 1.7084142883e-06
          5.8866472244 -9.8661584854 0.29186666012 -0.071631759405 -2.3045928478 0.082156561315
          -0.092820949852 -3.8432707787 -9.3852338523e-07 10.761626244 -12.52789402 -0.63086235523
          0 0 0 10.787759781 -12.555763245 -0.31649369001
          3.3786754608 -7.4210348129 0.5199238658 8.6823396683 -12.240671158 -0.59618031979
          0.035310059786 -3.6024770737 0.3589143455 0.83418554068 -7.4004006386 -0.56494957209
          0.027545686811 -1.1646624804 -0.054245844483 0.31064912677 -5.3241295815 0.20362642407
          1.5594182014 -7.2790331841 0.22751235962 0 0 0
          8.7072935104 -12.271478653 -0.29696506262 0.86428260803 -7.3931612968 -0.25122469664
          0.001993735088 -1.1970536709 -0.01959592104 2.4634413719 -9.5284767151 -0.56207376719
          -0.1795924753 -5.7511014938 -0.61658751965 9.6905679703 -10.382451057 0.68352872133
          0 0 0 7.6872377396 -10.071271896 0.6354187727
          10.795023918 -12.566527367 3.7064205571e-06 -0.14492622018 -5.6877689362 -0.290771842
          2.4436278343 -9.5389328003 -0.26275745034 0.047194853425 -1.0262982845 0.093716524541
          6.7314481735 -12.01761055 -0.55818551779 0.00015899560822 -2.47073102 -0.09691273421
          0 0 0 4.1521043777 -9.6999721527 0.27363228798
          -0.099293202162 -3.8395750523 0.14926737547 8.714881897 -12.282597542 3.2944426493e-06
          0.86788660288 -7.4161095619 1.864437138e-07 6.751806736 -12.046741486 -0.27804613113
          -0.033939678222 -2.5232820511 -0.047996371984 -0.0028435608838 -1.2091128826 -4.3701172103e-07
          5.8695626259 -9.826965332 0.58651012182 -0.030141511932 -2.2457187176 0.17581290007
          2.4217710495 -9.5436859131 1.2965385849e-06 -0.12043394148 -5.6840839386 -1.0944241922e-06
          1.5991538763 -7.2398867607 0.47504642606 6.7565765381 -12.05702877 2.8614831535e-06
          -0.041283197701 -2.5395035744 -7.5124108889e-07 0.35848125815 -5.3620944023 0.52788388729
          10.787761688 -12.555763245 0.31650111079 4.899160862 -11.873221397 -0.52877551317
          0 0 0 -0.075658522546 -4.0214672089 -0.15635290742
          4.9165687561 -11.897385597 -0.26229536533 8.7072944641 -12.271477699 0.29697164893
          0.0019938482437 -1.1970535517 0.019595142454 0.86428445578 -7.39316082 0.25122517347
          -0.10046510398 -4.0852565765 -0.079886563122 4.1518220901 -9.673582077 0.54567229748
          1.2926900387 -9.4951219559 -0.45160022378 2.4436299801 -9.5389328003 0.26276010275
          -0.036827217788 -3.7711348534 0.21390607953 -0.14492464066 -5.6877684593 0.29076999426
          0.16511613131 -7.7496685982 -0.56572961807 1.3316851854 -9.5463380814 -0.24056971073
          4.91711092 -11.90681076 2.4066773676e-06 6.7518081665 -12.046740532 0.27805188298
          -0.033939436078 -2.5232818127 0.047994934022 0.19045959413 -7.7447495461 -0.26142704487
          -0.10946254432 -4.1031575203 -9.6424446383e-07 11.771316528 -14.683961868 -0.60342228413
          0 0 0 7.5368075159e-06 -1.2378171682 -0.01838998124
          1.3395696878 -9.5503826141 9.1089424359e-07 3.2976408005 -11.766329765 -0.50022190809
          9.6260271072 -14.404438019 -0.56696099043 10.761629105 -12.527893066 0.63086986542
          0 0 0 0 0 0
          0.21431419253 -7.7427272797 -5.0560498721e-07 -0.072843901813 -5.7955617905 -0.1621966958
          11.787550926 -14.711791992 -0.30207130313 3.3005752563 -11.78689003 -0.24767366052
          9.6433143616 -14.43506813 -0.28203818202 8.6823425293 -12.24066925 0.5961869359
          -0.010936416686 -1.2649263144 -0.0065745054744 0.83418858051 -7.4003992081 0.56495004892
          0.027545578778 -1.1646623611 0.054245162755 -0.11006243527 -5.8970694542 -0.11295991391
          4.9165701866 -11.897384644 0.26230019331 -0.10046462715 -4.0852560997 0.079884722829
          7.5504965782 -14.182590485 -0.52429521084 2.4634451866 -9.5284748077 0.562076509
          -0.1795899272 -5.7511000633 0.6165856719 0 0 0
          -0.038966082036 -2.6131005287 -0.036211550236 11.793906212 -14.721942902 4.6154664233e-06
          -0.012784257531 -1.2733939886 -3.0922657857e-07 3.2829067707 -11.787279129 1.9509454887e-06
          7.5694746971 -14.211361885 -0.25975245237 6.7314510345 -12.017609596 0.55819129944
          9.6489343643 -14.445261002 4.143314527e-06 0.00015910695947 -2.4707305431 0.096911489964
          -0.12445901334 -5.8937735558 -9.9652595509e-07 -0.050678368658 -2.6564030647 -0.0164097175
          1.3316866159 -9.5463371277 0.24057149887 0.19046111405 -7.7447490692 0.26142609119
          0.52591145039 -9.8577842712 -0.5427903533 7.572974205 -14.218393326 3.6544049635e-06
          -0.055392645299 -2.6710939407 -5.9745940462e-07 0.51572751999 -9.8382949829 -0.23442684114
          5.6088562012 -14.051075935 -0.47943106294 0 0 0
          -0.09278460592 -4.1706619263 -0.042643781751 11.787552834 -14.711791039 0.30208054185
          -0.010936378501 -1.2649261951 0.0065739266574 3.3005771637 -11.786889076 0.24767753482
          5.6228413582 -14.072164536 -0.23469515145 4.899163723 -11.87321949 0.52878040075
          9.6433162689 -14.435067177 0.28204649687 1.7130916119 -11.670053482 -0.41467294097
          -0.095025621355 -7.7331328392 -0.16982910037 -0.075657904148 -4.021466732 0.15635129809
          -0.10553499311 -4.2329511642 -0.0213616658 -0.11006174982 -5.8970689774 0.1129579097
          1.7207151651 -11.703582764 -0.22094522417 -0.16299267113 -7.8615403175 -0.15123009682
          0.55413240194 -9.8689508438 -7.4782391835e-08 1.2926927805 -9.4951200485 0.45160162449
          7.5694761276 -14.211360931 0.25975978374 0.16511882842 -7.7496671677 0.5657286644
          5.6169304848 -14.073791504 3.1470817703e-06 -0.050678279251 -2.6564028263 0.016408560798
          -0.11164968461 -4.2518029213 -8.3101929249e-07 1.7330912352 -11.70916748 1.3656863302e-06
          -0.15407519042 -7.8582715988 -9.4670866702e-07 -0.16337354481 -5.9326210022 -0.040108904243
          3.8936851025 -14.016021729 -0.43920707703 11.771319389 -14.683959961 0.60343158245
          0 0 0 0.51572912931 -9.8382940292 0.23442687094
          7.3538576544e-06 -1.2378171682 0.018389448524 -0.17952686548 -6.0157804489 -0.01875144802
          3.2976436615 -11.766327858 0.50022566319 9.6260299683 -14.404435158 0.56696939468
          3.8988637924 -14.023028374 -0.21748438478 12.762649536 -16.865194321 -0.59626746178
          0 0 0 -0.072842866182 -5.7955608368 0.16219504178
          12.770122528 -16.899223328 -0.29757782817 -0.030978813767 -1.2737683058 0.015239434317
          10.544817924 -16.583620071 -0.5493375659 5.6228432655 -14.072163582 0.23470143974
          0 0 0 -0.1055347994 -4.2329511642 0.021360054612
          10.553894043 -16.61979866 -0.27319785953 -0.027987675741 -1.2976951599 0.0068402318284
          1.7207165956 -11.70358181 0.22094790637 -0.16299153864 -7.8615398407 0.15122820437
          7.5504994392 -14.182588577 0.52430254221 -0.1869212389 -6.0431475639 -9.9766725725e-07
          3.8887839317 -14.025061607 2.5676672522e-06 -0.03896619007 -2.6131005287 0.036210507154
          0.88832253218 -12.00677681 -0.57547318935 -0.069902904332 -2.6775126457 0.017901070416
          8.3459405899 -16.350046158 -0.4956831634 -0.26254668832 -10.232769966 -0.60199707747
          12.77487278 -16.910667419 5.5752539083e-06 0 0 0
          0.90009427071 -11.96643734 -0.23870657384 10.55741024 -16.63101387 5.0441012718e-06
          -0.028360852972 -1.3048148155 -2.017471985e-07 8.3602924347 -16.383522034 -0.24419231713
          -0.06895224005 -2.7144753933 0.010252552107 -0.24620106816 -10.182476997 -0.30256137252
          0.52591443062 -9.8577823639 0.54279053211 0.91328370571 -11.994625092 4.0165326709e-07
          -0.25854039192 -7.9475989342 -0.06914062053 -0.17952647805 -6.0157799721 0.018749542534
          2.2601797581 -14.006166458 -0.47865456343 8.3641786575 -16.39050293 4.4996809265e-06
          5.608859539 -14.051074028 0.47943738103 3.8988652229 -14.02302742 0.21748952568
          -0.22752732038 -10.178312302 -9.1619597242e-07 -0.069039367139 -2.7272496223 -4.2492524699e-07
          -0.092784501612 -4.1706619263 0.04264235124 12.770123482 -16.89922142 0.29758897424
          6.2246384621 -16.224666595 -0.43892547488 -0.27727988362 -8.0374040604 -0.02769664675
          -0.1196160689 -4.252371788 0.023235300556 2.2443962097 -13.99048233 -0.21751274168
          1.7130942345 -11.670050621 0.4146758914 -0.095023877919 -7.7331318855 0.16982766986
          0 0 0 -0.11864633113 -4.3001260757 0.013960978016
          10.55389595 -16.61979866 0.27320796251 -0.027987685055 -1.2976951599 -0.0068406169303
          6.2256598473 -16.23774147 -0.21458901465 -0.29583701491 -8.0669326782 -1.0876260603e-06
          2.2261600494 -13.986558914 1.9536080345e-06 0.90009611845 -11.966436386 0.23870766163
          6.2122559547 -16.230829239 3.9334063331e-06 -0.12021286041 -4.3177537918 -6.4461534066e-07
          8.360294342 -16.383520126 0.24420133233 -0.068952254951 -2.7144753933 -0.010253386572
          -0.24619917572 -10.182476044 0.3025598228 -0.16337308288 -5.9326205254 0.040107220411
          3.8936882019 -14.016019821 0.43921232224 4.3753390312 -16.266571045 -0.41534361243
          12.762652397 -16.865192413 0.59627860785 0 0 0
          -0.17908377945 -6.0352373123 0.032721996307 -0.030979009345 -1.273768425 -0.015239824541
          10.544820786 -16.583618164 0.54934769869 -0.27727919817 -8.0374040604 0.027694568038
          2.2443985939 -13.990481377 0.217516765 4.3468689919 -16.242973328 -0.20343762636
          0.070651270449 -12.371276855 -0.60091304779 -0.17813466489 -6.0901908875 0.020406238735
          -0.11864630133 -4.3001260757 -0.013962233439 6.2256612778 -16.237739563 0.21459689736
          0.11741693318 -12.339821815 -0.29262804985 1.2903805971 -14.207714081 -0.51340180635
          -0.32257026434 -10.094975471 -0.022636646405 13.7613554 -19.105669022 -0.60148030519
          0 0 0 11.456256866 -18.818962097 -0.54387038946
          0.88832581043 -12.006773949 0.57547461987 -0.0699031353 -2.6775126457 -0.017901852727
          8.3459434509 -16.35004425 0.49569219351 -0.3949111402 -10.231955528 -0.097446382046
          1.3108552694 -14.19195652 -0.24009387195 -0.26254361868 -10.232767105 0.60199564695
          13.762119293 -19.147216797 -0.29974403977 0 0 0
          -0.18231900036 -6.1131544113 -8.3791900352e-07 4.3017406464 -16.221611023 3.332518645e-06
          -0.05729143694 -1.2723952532 0.047647856176 11.458491325 -18.861732483 -0.27062654495
          -0.043035585433 -1.2949551344 0.019872264937 0.1167768389 -12.326029778 -4.2049686044e-07
          9.1387968063 -18.57195282 -0.48083484173 -0.37887555361 -10.237236977 -1.1001601479e-06
          1.2996753454 -14.187842369 1.2929320974e-06 13.764779091 -19.160722733 6.5756480581e-06
          0 0 0 -0.0942350775 -2.6734707355 0.063402168453
          9.1456346512 -18.612668991 -0.23784121871 11.460329056 -18.874872208 5.9865333242e-06
          -0.25853937864 -7.9475979805 0.069138802588 2.2601840496 -14.006164551 0.47865888476
          -0.042067073286 -1.3013209105 -9.1587857298e-08 -0.083657227457 -2.7067136765 0.032611183822
          6.2246413231 -16.224664688 0.4389333725 -0.11961621791 -4.252371788 -0.023236457258
          -0.24472132325 -8.019985199 0.05583454296 2.9271607399 -16.343450546 -0.46644380689
          -0.17813453078 -6.0901904106 -0.020407868549 4.3468708992 -16.24297142 0.20344434679
          -0.25377446413 -8.0920257568 0.025968804955 2.8970999718 -16.303173065 -0.22249688208
          0.11741890758 -12.339821815 0.2926273942 9.1483535767 -18.623226166 5.3842259149e-06
          -0.080025188625 -2.7181529999 -2.3252536607e-07 6.8065700531 -18.395296097 -0.41835486889
          -0.39491015673 -10.231954575 0.097444236279 1.3108571768 -14.191955566 0.24009658396
          13.762121201 -19.147216797 0.2997571826 0 0 0
          -0.11993093044 -4.24518013 0.073775760829 6.8120465279 -18.420223236 -0.20869722962
          11.458493233 -18.861730576 0.27063852549 -0.11254781485 -4.2847738266 0.03831172362
          -0.257478863 -8.118429184 -1.0037093716e-06 2.8465313911 -16.271617889 2.7148496429e-06
          -0.043035633862 -1.2949551344 -0.019872451201 9.1456365585 -18.612668991 0.23785199225
          6.809838295 -18.42181778 4.7598946367e-06 -0.11011128128 -4.299759388 -4.0660421519e-07
          4.3753423691 -16.266569138 0.41535040736 0.44071942568 -14.5417099 -0.53542470932
          -0.083657316864 -2.7067136765 -0.032611653209 -0.17908373475 -6.0352373123 -0.032723475248
          -0.66646963358 -12.673265457 -0.51508826017 0.46361717582 -14.527381897 -0.24568925798
          0.070654571056 -12.371274948 0.60091251135 -0.63862782717 -12.69055748 -0.26872935891
          -0.25377416611 -8.0920257568 -0.025970747694 2.8971021175 -16.303171158 0.22250236571
          1.290383935 -14.207712173 0.51340401173 -0.32256874442 -10.094974518 0.022634876892
          -0.13564844429 -6.0159568787 0.08365368098 4.7355790138 -18.360713959 -0.38949394226
          13.761358261 -19.105667114 0.60149353743 0 0 0
          11.456259727 -18.81896019 0.5438824296 -0.12981133163 -6.0602254868 0.043424408883
          0.45408082008 -14.51809597 2.445491134e-07 -0.3586615324 -10.236424446 0.033311240375
          1.6889607906 -16.378038406 -0.45365515351 4.7112526894 -18.348007202 -0.20492890477
          -0.057291615754 -1.2723953724 -0.047648079693 -0.57097619772 -12.637029648 -1.1052139826e-06
          6.8120484352 -18.420221329 0.20870676637 -0.1125479117 -4.2847738266 -0.038312528282
          1.6763491631 -16.356529236 -0.2207325995 -0.37166318297 -10.317875862 0.027702795342
          9.1387996674 -18.571950912 0.48084563017 -0.12835429609 -6.0786118507 -5.992185379e-07
          4.6633114815 -18.335229874 4.1777584556e-06 -0.094235368073 -2.6734707355 -0.06340264529
          1.6439619064 -16.332052231 1.8942267843e-06 14.775951385 -21.436004639 -0.61191755533
          0 0 0 -0.38486340642 -10.35050869 -1.1430844324e-06
          14.772842407 -21.483507156 -0.30508166552 0 0 0
          0.46361926198 -14.527380943 0.24568983912 12.371052742 -21.14458847 -0.54696851969
          -0.24472099543 -8.019985199 -0.05583627522 2.9271645546 -16.343448639 0.4664491713
          -0.082345895469 -1.233651638 0.080102324486 -0.63862627745 -12.69055748 0.26872712374
          12.368802071 -21.192573547 -0.2726764977 -0.057341333479 -1.2562885284 0.033191397786
          6.806573391 -18.395292282 0.41836449504 14.773723602 -21.498939514 7.6107021414e-06
          -0.12981140614 -6.0602254868 -0.043425586075 9.9371681213 -20.887180328 -0.47982698679
          -0.11496859789 -2.5995252132 0.10824387521 4.7112545967 -18.348005295 0.20493724942
          0 0 0 3.3977150917 -18.442392349 -0.43704149127
          -0.14205314219 -8.0046949387 0.094214700162 -0.11993125081 -4.24518013 -0.07377654314
          -0.096127562225 -2.6327750683 0.054950807244 9.9389162064 -20.934230804 -0.23856571317
          12.369121552 -21.20788765 6.9619700298e-06 1.6763509512 -16.356527328 0.22073636949
          -0.13592846692 -8.0513753891 0.049825899303 3.3925080299 -18.418203354 -0.20509323478
          -0.37166261673 -10.317874908 -0.027704982087 -0.055323809385 -1.2622474432 2.6213625048e-08
          -0.3607237637 -14.877550125 -0.54136925936 9.9408006668 -20.948532104 6.301598205e-06
          0.44072318077 -14.541707039 0.53542530537 -0.089202612638 -2.6434435844 -2.0748190721e-08
          -0.13618583977 -8.0758419037 -7.9435932321e-07 -0.33259037137 -14.871251106 -0.2521559298
          3.3712484837 -18.401399612 3.4933325423e-06 -0.66646707058 -12.67326355 0.51508688927
          14.772844315 -21.483507156 0.3050968945 7.4731535912 -20.666419983 -0.41372227669
          -0.47093877196 -12.492222786 0.11671219766 0 0 0
          -0.11349151284 -4.1370325089 0.1227831319 0.80960869789 -16.629062653 -0.48457744718
          -0.10158318281 -4.1776871681 0.062181029469 7.4810519218 -20.706323624 -0.20577061176
          12.368803978 -21.19257164 0.27269041538 -0.54406917095 -12.645021439 -0.046369645745
          0.79964333773 -16.615394592 -0.21245196462 -0.05734141916 -1.2562884092 -0.033191367984
          -0.13564871252 -6.0159568787 -0.083654798567 4.7355823517 -18.360712051 0.38950228691
          -0.34095230699 -14.860013008 -8.2586649341e-07 -0.35866075754 -10.236423492 -0.033313143998
          1.6889642477 -16.378034592 0.45365920663 7.4858875275 -20.717590332 5.6406342992e-06
          9.9389181137 -20.934228897 0.23857833445 -0.51563072205 -12.653483391 -1.2254635067e-06
          -0.096127726138 -2.6327750683 -0.054950870574 -0.096108868718 -4.1915445328 -1.342007323e-07
          -0.13592843711 -8.0513744354 -0.049827449024 3.3925101757 -18.418203354 0.20510020852
          0.75440639257 -16.603849411 9.1354979759e-07 2.2013261318 -18.532413483 -0.45085221529
          -0.13156275451 -10.169400215 0.11377452314 2.1318061352 -18.482477188 -0.20682868361
          -0.12824892998 -10.235844612 0.057355489582 14.7759552 -21.436000824 0.61193281412
          0 0 0 -0.332588166 -14.871250153 0.25215449929
          -0.080821298063 -5.8787722588 0.12937243283 5.148627758 -20.5362854 -0.37314140797
          -0.072423681617 -5.9228029251 0.064515441656 12.371056557 -21.144586563 0.54698240757
          -0.082346051931 -1.2336517572 -0.080102369189 5.1410074234 -20.536333084 -0.18575243652
          7.4810538292 -20.706321716 0.20578190684 -0.54406815767 -12.645020485 0.046367269009
          -0.10158341378 -4.1776871681 -0.062181320041 0.79964548349 -16.615392685 0.21245397627
          2.0335366726 -18.422193527 2.7448143101e-06 -0.1287406981 -10.265650749 -9.6219935131e-07
          9.9371709824 -20.887178421 0.47983965278 -0.11496892571 -2.5995252132 -0.10824401677
          3.3977189064 -18.442390442 0.43704855442 -0.066937476397 -5.9400849342 -3.0927867556e-07
          -0.1420532614 -8.0046949387 -0.094216145575 5.1102995872 -20.528968811 5.0282919801e-06
          15.806607246 -23.873991013 -0.62277674675 0 0 0
          -0.36071994901 -14.877547264 0.54136765003 2.1318085194 -18.482475281 0.20683416724
          0 0 0 13.293324471 -23.578582764 -0.55360221863
          -0.99003720284 -15.210849762 -0.48476850986 -0.12824873626 -10.235843658 -0.057357367128
          -0.10894098878 -1.1558734179 0.11481986195 -0.0076181949116 -16.952703476 -0.49415886402
          15.80207634 -23.925321579 -0.31090262532 7.473156929 -20.666416168 0.41373363137
          13.289316177 -23.629981995 -0.27669754624 -0.072325073183 -1.1793092489 0.047520976514
          -0.47093734145 -12.492221832 -0.11671436578 -0.96026927233 -15.227286339 -0.23720355332
          -0.11349199712 -4.1370325089 -0.12278348207 3.9426410198 -20.60883522 -0.4201208055
          -0.072423957288 -5.9228029251 -0.064516074955 0.80961245298 -16.629058838 0.48457953334
          -0.012398062274 -7.821372509 0.12725894153 5.1410088539 -20.536331177 0.1857625246
          -0.0033764322288 -16.940238953 -0.22102726996 -0.0001855908049 -7.8726420403 0.067490696907
          3.8958854675 -20.555681229 -0.18989631534 10.751846313 -23.312084198 -0.48495471478
          15.801790237 -23.94219017 8.6723111963e-06 -0.13796216249 -2.4579565525 0.15856416523
          0 0 0 10.750833511 -23.364358902 -0.24181234837
          -0.11058828235 -2.4920856953 0.080087721348 13.288760185 -23.647014618 7.9583305705e-06
          1.1579049826 -18.676027298 -0.43898898363 -0.81707441807 -15.174850464 -1.5526677544e-06
          -0.03121858649 -16.921827316 -1.0489760882e-07 -0.12839174271 -12.541575432 0.12517794967
          -0.069777153432 -1.1851199865 1.5477232296e-07 1.1175519228 -18.644197464 -0.21491104364
          3.8201429844 -20.499486923 4.514711236e-06 -0.12184192985 -12.626432419 0.06787148118
          0.0043070623651 -7.893289566 -5.2494146985e-07 2.2013311386 -18.532411575 0.45085769892
          10.751781464 -23.381374359 7.2399484452e-06 -0.1315625906 -10.169399261 -0.11377621442
          -0.10076983273 -2.5016694069 2.052344712e-07 8.1810398102 -23.070058823 -0.41107454896
          15.802078247 -23.925319672 0.31091997027 1.0368256569 -18.586940765 1.9590820557e-06
          -0.12481652945 -3.940362215 0.18015262485 -0.080821886659 -5.8787722588 -0.12937310338
          -0.1275023967 -12.657513618 -1.0798715948e-06 5.1486310959 -20.536283493 0.37315154076
          0 0 0 8.1883602142 -23.122955322 -0.20502321422
          -0.10585921258 -3.9838430882 0.092859379947 13.289318085 -23.629980087 0.27671346068
          -0.96026784182 -15.227285385 0.23720028996 -0.0033743204549 -16.940237045 0.22102725506
          -0.072325207293 -1.1793091297 -0.047520715743 3.8958876133 -20.555679321 0.18990531564
          -0.00018584642385 -7.8726420403 -0.067491739988 10.750834465 -23.364358902 0.24182683229
          8.1946744919 -23.13971138 6.5395202e-06 2.6968791485 -20.614906311 -0.44201293588
          0.12493682653 -9.9683485031 0.15074898303 -0.097093082964 -3.9961287975 1.5253048957e-07
          -0.11058855802 -2.4920856953 -0.08008736372 0.14227937162 -10.023153305 0.072646535933
          1.1175539494 -18.644195557 0.21491494775 2.6238372326 -20.561306 -0.21513675153
          -0.12184145302 -12.626431465 -0.06787353009 5.6613883972 -22.846237183 -0.32998755574