<?xml version="1.0"?>
<VTKFile type="UnstructuredGrid" version="0.1" byte_order="LittleEndian" header_type="UInt32" compressor="vtkZLibDataCompressor">
  <UnstructuredGrid>
    <Piece NumberOfPoints="6405" NumberOfCells="4800">
      <PointData>
        <DataArray type="Float32" Name="DISPLACEMENT" NumberOfComponents="3" ComponentName0="X-DISPLACEMENT" ComponentName1="Y-DISPLACEMENT" ComponentName2="Z-DISPLACEMENT" format="ascii" RangeMin="0" RangeMax="350.46929307">
          0 0 0 0 0 0
          2.7500729561 -1.5677716732 -1.2698642015 0 0 0
          1.5775383711 -0.86890864372 -0.8491319418 0 0 0
          2.5297849178 -1.8152985573 -0.5007609129 1.3714852333 -1.0865880251 -0.34530979395
          0 0 0 5.0172219276 -3.294844389 -1.3005877733
          0 0 0 4.9540543556 -3.5837004185 -0.66074150801
          3.1827204227 -2.7505629063 -0.94490039349 0 0 0
          0 0 0 2.5466296673 -1.8867069483 -4.0529712919e-08
          0.82529354095 -0.56574690342 -0.46733945608 1.3637051582 -1.1256816387 -6.3652558779e-09
          3.1110203266 -2.9955034256 -0.4798951745 0.70687955618 -0.78188085556 -0.18974268436
          4.9019322395 -3.662304163 -5.3898325802e-08 1.6689301729 -2.3711118698 -0.5662304759
          0 0 0 3.068354845 -3.0678896904 5.3050626114e-09
          1.5792868137 -2.6015119553 -0.28975021839 0 0 0
          7.0338630676 -5.7565603256 -1.1951808929 0 0 0
          0.70591592789 -0.81634795666 2.4320833347e-08 0 0 0
          0 0 0 2.5297849178 -1.8152985573 0.50076085329
          4.6730885506 -5.2591671944 -0.91267627478 7.0553040504 -5.9688773155 -0.60366868973
          -0.12172545493 -0.49122405052 -0.042040847242 1.3714852333 -1.0865880251 0.34530979395
          4.6812229156 -5.4583649635 -0.4628020227 -0.22227059305 -0.73389703035 -0.042480930686
          1.5449767113 -2.6647651196 5.9811426922e-08 4.9540543556 -3.5837004185 0.6607413888
          0 0 0 0 0 0
          -0.059866324067 -2.2209107876 -0.21745353937 2.6136376858 -4.9243750572 -0.64052373171
          7.0321836472 -6.0393075943 -5.0107573202e-08 3.1110203266 -2.9955034256 0.4798951745
          2.5613043308 -5.1041502953 -0.32468208671 0.70687955618 -0.78188091516 0.18974272907
          4.6670279503 -5.5197892189 3.1383454058e-08 -0.16118903458 -2.4456188679 -0.12293708324
          -0.24838469923 -0.78064233065 5.857887686e-08 0 0 0
          8.8182468414 -8.6507034302 -1.0334305763 0 0 0
          6.0794863701 -8.2141036987 -0.8506757617 1.5792868137 -2.6015121937 0.2897503674
          8.8669309616 -8.7900886536 -0.52149897814 2.7500729561 -1.5677717924 1.2698640823
          0 0 0 0 0 0
          -0.18387450278 -2.5111143589 1.1544341305e-07 2.5425205231 -5.1588292122 1.0887649182e-07
          -0.89993160963 -0.76730960608 0.24229255319 6.1135578156 -8.347284317 -0.42736801505
          1.5775384903 -0.86890876293 0.8491319418 0.34086239338 -4.7398633957 -0.4069557488
          0 0 0 7.0553040504 -5.9688773155 0.60366857052
          -1.0503401756 -0.97738945484 0.089746296406 0.26080715656 -4.8970775604 -0.20817950368
          4.6812229156 -5.4583649635 0.4628020823 -0.22227059305 -0.73389708996 0.04248104617
          3.6164808273 -7.9083094597 -0.67742717266 -1.2793698311 -2.476701498 -0.15360701084
          8.860001564 -8.8365802765 -3.0307273136e-08 5.0172219276 -3.2948446274 1.3005876541
          0 0 0 0 0 0
          3.5936758518 -8.0211820602 -0.34150037169 3.1827206612 -2.7505631447 0.94490039349
          6.1158022881 -8.3903236389 6.8864054015e-08 -1.4509811401 -2.5898339748 -0.04654430598
          0.82529360056 -0.56574702263 0.46733954549 -1.1167669296 -1.0490218401 1.2104842995e-07
          0.24754680693 -4.9489197731 1.902372162e-07 2.5613045692 -5.1041502953 0.32468232512
          -0.16118900478 -2.4456188679 0.12293732911 3.5863232613 -8.0588493347 1.6524816715e-07
          1.6689302921 -2.3711121082 0.56623065472 -1.4651005268 -2.6608958244 1.9445904798e-07
          1.0320705175 -7.7129240036 -0.55972677469 8.8669309616 -8.7900886536 0.52149891853
          7.0338630676 -5.7565603256 1.1951808929 0 0 0
          10.372984886 -11.792023659 -0.8946840167 0 0 0
          0 0 0 -1.1539694071 -4.9822621346 -0.46586218476
          0.97901600599 -7.794034481 -0.27732822299 10.42250061 -11.87298584 -0.44973531365
          7.3944950104 -11.400744438 -0.78877305984 6.1135578156 -8.347284317 0.42736816406
          -1.0779268742 -1.2093398571 0.40294799209 0 0 0
          4.6730885506 -5.2591676712 0.91267633438 -0.12172540277 -0.49122413993 0.042040966451
          -1.2761286497 -5.0041065216 -0.1996614933 -1.0503401756 -0.97738951445 -0.089746080339
          -1.2208813429 -1.3537018299 0.14643375576 0.26080724597 -4.8970775604 0.20817989111
          7.4334115982 -11.47971344 -0.39390456676 3.5936760902 -8.0211830139 0.34150069952
          0.96978586912 -7.8275885582 2.6864711344e-07 10.424479485 -11.901004791 2.3628567991e-09
          -1.7199805975 -3.1374723911 -0.39199236035 -1.4509811401 -2.5898339748 0.046544700861
          0 0 0 4.6531543732 -11.110977173 -0.69006347656
          -0.059866197407 -2.220911026 0.21745380759 2.6136379242 -4.9243755341 0.64052397013
          -1.2876354456 -5.0533056259 2.8692772958e-07 7.4416007996 -11.50551796 1.1349843732e-07
          -1.2463680506 -1.4156079292 2.2308073255e-07 -1.9787310362 -3.0600616932 -0.15046563745
          4.6524205208 -11.171531677 -0.34581646323 8.8182468414 -8.6507043839 1.0334304571
          0 0 0 -0.74557894468 -7.8748455048 -0.65087783337
          6.0794863701 -8.2141036987 0.85067588091 -1.9803436995 -3.0810403824 2.949979887e-07
          -0.8048645854 -7.8565478325 -0.30176335573 4.6528024673 -11.193145752 2.2381964015e-07
          -0.89993149042 -0.76730972528 -0.24229232967 0.9790161252 -7.794034481 0.27732875943
          1.9030848742 -10.908896446 -0.64456403255 10.42250061 -11.87298584 0.44973531365
          -1.5881470442 -5.8706359863 -0.90134948492 0.340862602 -4.7398633957 0.40695619583
          0 0 0 -1.2761286497 -5.0041065216 0.19966207445
          1.876799345 -10.936751366 -0.31816121936 -1.2208814621 -1.3537019491 -0.14643336833
          -1.6947722435 -5.7079796791 -0.39758008718 7.4334115982 -11.47971344 0.39390477538
          3.6164810658 -7.9083099365 0.67742753029 -1.2793697119 -2.4767017365 0.15360742807
          11.74303627 -15.042525291 -0.79098308086 0 0 0
          -0.80815005302 -7.8907833099 3.8166959371e-07 8.6255512238 -14.683382034 -0.73392152786
          11.785096169 -15.086223602 -0.39660236239 0 0 0
          -1.2693959475 -1.5592851639 0.5933573842 8.6615228653 -14.726742744 -0.36558949947
          1.8676810265 -10.952168465 3.4182261288e-07 -1.3141053915 -1.7096104622 0.19874587655
          -1.9787311554 -3.0600616932 0.15046623349 -1.693125248 -5.7130632401 4.0140886881e-07
          4.6524209976 -11.171532631 0.34581691027 5.7007761002 -14.396450043 -0.67988324165
          -2.3279089928 -3.7180192471 -0.44535544515 11.790977478 -15.101630211 4.2735504024e-08
          0 0 0 -2.5810089111 -3.6217172146 -0.26179045439
          5.7141671181 -14.42656517 -0.33971565962 8.6711063385 -14.740829468 1.606990736e-07
          -1.3084475994 -1.7600816488 2.3202298394e-07 1.032070756 -7.7129244804 0.55972737074
          -0.15419429541 -10.996254921 -0.72511452436 10.372984886 -11.792023659 0.8946840167
          0 0 0 -1.2452532053 -8.8077545166 -1.0476896763
          -0.80486452579 -7.8565478325 0.30176410079 -1.1539691687 -4.9822626114 0.46586275101
          7.3944950104 -11.400745392 0.78877329826 -1.077926755 -1.2093399763 -0.40294766426
          -1.2467426062 -8.6779994965 -0.48290318251 -0.17150038481 -10.953658104 -0.35116863251
          1.8767995834 -10.936752319 0.31816190481 -1.6947722435 -5.7079796791 0.39758092165
          5.7183513641 -14.437443733 2.7952452797e-07 -2.5314154625 -3.5895862579 4.3049141141e-07
          2.844455719 -14.181556702 -0.66339087486 -2.3314685822 -6.649497509 -1.0700361729
          -1.7199804783 -3.1374726295 0.3919929266 11.785096169 -15.086223602 0.3966024518
          4.6531543732 -11.110977173 0.6900639534 0 0 0
          -0.17455108464 -10.964015961 4.618347873e-07 -1.2256709337 -8.6868276596 5.1149208957e-07
          2.8424351215 -14.186785698 -0.33025923371 8.6615228653 -14.726742744 0.3655898273
          -2.3679900169 -6.50710392 -0.56546705961 -1.3141055107 -1.7096104622 -0.19874545932
          -0.74557876587 -7.8748459816 0.65087860823 2.8377099037 -14.193120003 4.0529903345e-07
          5.7141675949 -14.42656517 0.33971622586 -2.5810089111 -3.6217172146 0.26179131866
          -2.3434720039 -6.4720458984 5.8707144035e-07 12.981924057 -18.332305908 -0.71967613697
          0 0 0 13.014913559 -18.355783463 -0.35996612906
          1.9030851126 -10.9088974 0.64456468821 9.7863388062 -17.994194031 -0.68808531761
          -1.5881470442 -5.8706359863 0.90135031939 -0.8717854023 -11.820316315 -1.0402828455
          -1.5457829237 -1.9195364714 0.76889806986 -1.2467426062 -8.6779994965 0.48290419579
          -0.1715003252 -10.953658104 0.35116955638 0 0 0
          9.8164329529 -18.018228531 -0.34239149094 -0.82768112421 -11.714718819 -0.4961540699
          -1.5839567184 -2.1030361652 0.22632570565 0.50404161215 -14.1757164 -0.72083616257
          -1.979886055 -9.684343338 -1.1513285637 11.743037224 -15.042526245 0.79098320007
          0 0 0 8.6255521774 -14.683382988 0.73392182589
          13.022026062 -18.364009857 8.4422666191e-08 -1.941652894 -9.5930147171 -0.59855365753
          0.52001798153 -14.138963699 -0.3601013422 -1.2693959475 -1.5592852831 -0.59335696697
          6.7402510643 -17.706626892 -0.65566784143 -2.9870767593 -4.3283948898 -0.47472769022
          0 0 0 2.8424351215 -14.186785698 0.33026006818
          -2.3679900169 -6.50710392 0.5654681921 9.8253450394 -18.025541306 2.0575646431e-07
          -0.7898671031 -11.722620964 5.9828153098e-07 6.7593851089 -17.721761703 -0.32676133513
          -3.2866065502 -4.2498254776 -0.30710819364 -1.6516941786 -2.1940865517 1.9514722283e-07
          5.700776577 -14.396450043 0.6798837781 -2.3279087543 -3.7180197239 0.44535636902
          0.53132718801 -14.148304939 5.3237914699e-07 -1.904086113 -9.5766859055 6.9174922146e-07
          -0.15419413149 -10.996254921 0.72511541843 6.765100956 -17.726259232 3.2951265894e-07
          -3.2168560028 -4.2392196655 5.7597759451e-07 -1.2452530861 -8.8077545166 1.04769063
          13.014913559 -18.355783463 0.35996630788 3.7907919884 -17.482847214 -0.64596247673
          0 0 0 -3.010890007 -7.4756302834 -1.2566586733
          3.802065134 -17.478984833 -0.32318356633 9.8164329529 -18.018228531 0.34239187837
          -1.5839569569 -2.1030364037 -0.22632531822 -0.82768112421 -11.714719772 0.49615526199
          -3.0167646408 -7.3626098633 -0.64731740952 2.8444559574 -14.181556702 0.66339164972
          -0.47642123699 -14.823863029 -0.99888956547 0.52001804113 -14.138963699 0.36010241508
          -2.3314685822 -6.649497509 1.070037365 -1.9416530132 -9.5930147171 0.59855502844
          -1.6117568016 -12.66649437 -1.145720005 -0.41189929843 -14.741511345 -0.48035636544
          3.8022150993 -17.480026245 4.6042097779e-07 6.7593851089 -17.721761703 0.32676199079
          -3.2866065502 -4.2498259544 0.30710941553 -1.5589581728 -12.589718819 -0.5873862505
          -2.9692823887 -7.360657692 7.8305549778e-07 14.134213448 -21.635787964 -0.67298769951
          0 0 0 -1.577824831 -2.2252421379 0.87266153097
          -0.36009159684 -14.764484406 6.608523222e-07 1.2227600813 -17.423084259 -0.69711822271
          10.890648842 -21.312196732 -0.65220141411 12.981924057 -18.332305908 0.71967631578
          0 0 0 0 0 0
          -1.5172030926 -12.582332611 7.5190973803e-07 -2.5113918781 -10.63973999 -1.3095771074
          14.158657074 -21.650220871 -0.33589926362 1.2488107681 -17.385562897 -0.34902608395
          10.913924217 -21.327323914 -0.32431972027 9.7863388062 -17.994194031 0.68808567524
          -1.5848827362 -2.4196443558 0.23968935013 -0.87178528309 -11.820316315 1.0402839184
          -1.5457829237 -1.9195365906 -0.76889765263 -2.4664816856 -10.562319756 -0.66091775894
          3.8020653725 -17.478984833 0.3231844902 -3.0167646408 -7.3626098633 0.64731901884
          7.7579202652 -21.026500702 -0.62845396996 0.50404179096 -14.175717354 0.72083723545
          -1.979886055 -9.684343338 1.151329875 0 0 0
          -3.258882761 -5.3700790405 -1.0157600641 14.165385246 -21.654951096 1.2215879508e-07
          -1.6907302141 -2.5923302174 1.0389442195e-07 1.2651075125 -17.390039444 5.9349855519e-07
          7.776553154 -21.034870148 -0.31250539422 6.7402510643 -17.706626892 0.65566849709
          10.921323776 -21.331228256 2.4437937896e-07 -2.9870767593 -4.3283953667 0.47472900152
          -2.4226338863 -10.567052841 8.5954485485e-07 -3.5127453804 -5.1508073807 -0.52879101038
          -0.41189926863 -14.741511345 0.48035770655 -1.5589581728 -12.589718819 0.58738774061
          -1.2085260153 -15.64561367 -1.1357705593 7.7823600769 -21.035984039 3.7040297229e-07
          -3.4633994102 -5.1853795052 8.1523489825e-07 -1.1489622593 -15.574806213 -0.56987506151
          4.7143616676 -20.799848557 -0.62022960186 0 0 0
          -2.9883024693 -8.7285747528 -1.5794451237 14.158657074 -21.650220871 0.33589950204
          -1.5848829746 -2.4196445942 -0.23968906701 1.2488108873 -17.385562897 0.34902727604
          4.7291173935 -20.791542053 -0.31071808934 3.7907922268 -17.482847214 0.6459634304
          10.913924217 -21.327323914 0.32432022691 0.017618790269 -17.929904938 -0.96159952879
          -2.0463011265 -13.668699265 -1.3081628084 -3.010890007 -7.4756302834 1.256660223
          -2.9280610085 -8.6085195541 -0.77255243063 -2.4664816856 -10.562319756 0.66091948748
          0.081461161375 -17.844644547 -0.46073055267 -1.9887579679 -13.599123955 -0.65167999268
          -1.1068452597 -15.574197769 7.9305380041e-07 -0.47642114758 -14.823863029 0.99889081717
          7.7765536308 -21.034872055 0.31250613928 -1.6117568016 -12.66649437 1.1457214355
          4.7321567535 -20.790081024 5.0286024589e-07 -3.5127453804 -5.1508073807 0.52879267931
          -2.8903663158 -8.6172790527 9.7897748219e-07 0.12985797226 -17.858888626 7.0674531116e-07
          -1.9522086382 -13.599947929 8.9831718242e-07 -2.4822359085 -11.909608841 -1.5241682529
          1.978646636 -20.712835312 -0.67535746098 14.134213448 -21.635789871 0.67298787832
          0 0 0 -1.1489623785 -15.574806213 0.56987667084
          -1.5778247118 -2.2252421379 -0.87266117334 -2.4071261883 -11.829089165 -0.75182086229
          1.2227602005 -17.423084259 0.69711941481 10.890648842 -21.312196732 0.65220189095
          2.0054135323 -20.673030853 -0.33694562316 15.230449677 -24.949895859 -0.64341253042
          0 0 0 -2.5113918781 -10.63973999 1.3095787764
          15.247598648 -24.961275101 -0.32071062922 -1.5744475126 -3.161714077 0.37193199992
          11.950594902 -24.63697052 -0.6260253191 4.7291173935 -20.791542053 0.31071910262
          0 0 0 -2.9280610085 -8.6085205078 0.77255439758
          11.967367172 -24.648727417 -0.31121861935 -1.8741599321 -3.2172539234 0.077915534377
          0.081461206079 -17.844644547 0.46073198318 -1.9887579679 -13.599123955 0.65168178082
          7.7579202652 -21.026500702 0.62845474482 -2.3806946278 -11.826375008 1.0264126331e-06
          2.022264719 -20.67522049 6.3636838377e-07 -3.258882761 -5.3700795174 1.0157618523
          -0.75370150805 -18.653944016 -1.1114192009 -2.9942443371 -6.8558216095 -1.7544134855
          8.7486991882 -24.355484009 -0.60535359383 -1.5934736729 -16.630807877 -1.2761975527
          15.253144264 -24.964645386 1.5099665518e-07 0 0 0
          -0.69129270315 -18.585161209 -0.55227404833 11.973033905 -24.65120697 2.7276402648e-07
          -1.8618142605 -3.4166219234 4.1332637579e-07 8.7638883591 -24.361059189 -0.30070006847
          -2.9567086697 -6.6268634796 -0.86022919416 -1.5302985907 -16.571365356 -0.63269305229
          -1.2085260153 -15.64561367 1.135772109 -0.65341603756 -18.580951691 8.2673159341e-07
          -2.0572242737 -14.900700569 -1.4433499575 -2.4071264267 -11.829089165 0.75182288885
          0.61447191238 -21.111101151 -0.92774003744 8.7689495087 -24.360754013 3.9923551753e-07
          4.7143621445 -20.799850464 0.62023055553 2.0054135323 -20.673030853 0.33694687486
          -1.5028030872 -16.562822342 9.2448374289e-07 -2.9478051662 -6.6092801094 1.1457932487e-06
          -2.9883027077 -8.7285747528 1.5794471502 15.247598648 -24.961275101 0.32071095705
          5.6141028404 -24.127090454 -0.59839463234 -1.9734171629 -14.85441494 -0.71516889334
          -2.4784076214 -10.216200829 -1.7271792889 0.67360335588 -21.024850845 -0.44370010495
          0.017618902028 -17.929906845 0.9616008997 -2.0463011265 -13.668700218 1.3081645966
          0 0 0 -2.3380663395 -10.209629059 -0.85510605574
          11.967367172 -24.648727417 0.31121915579 -1.8741600513 -3.2172544003 -0.077914707363
          5.6274924278 -24.116758347 -0.29972657561 -1.9557566643 -14.84250164 1.0483429378e-06
          0.71397477388 -21.030639648 7.4336219313e-07 -0.69129270315 -18.585161209 0.55227571726
          5.6313261986 -24.114393234 5.3106634823e-07 -2.3216176033 -10.18351078 1.1974580048e-06
          8.7638883591 -24.361059189 0.30070087314 -2.9567089081 -6.6268639565 0.86023151875
          -1.5302987099 -16.571365356 0.63269490004 -2.4822361469 -11.909608841 1.5241702795
          1.9786467552 -20.712835312 0.67535871267 2.7566022873 -24.019384384 -0.65751641989
          15.230449677 -24.949895859 0.64341282845 0 0 0
          -2.0108413696 -13.339933395 -1.5579473972 -1.574447155 -3.1617147923 -0.37193104625
          11.950594902 -24.636972427 0.62602585554 -1.9734174013 -14.85441494 0.7151709795
          0.67360341549 -21.024850845 0.44370159507 2.7812037468 -23.978248596 -0.32689487934
          -1.1160099506 -19.546524048 -1.213978529 -1.8698635101 -13.39936161 -0.76764172316
          -2.3380665779 -10.209629059 0.85510843992 5.6274924278 -24.116758347 0.29972761869
          -1.0494779348 -19.508623123 -0.60134518147 -0.2093347162 -21.706001282 -1.068226099
          -1.6617465019 -17.743736267 -1.3318681717 16.29045105 -28.27841568 -0.62553721666
          0 0 0 12.97723484 -27.973161697 -0.60823404789
          -0.75370150805 -18.653944016 1.1114207506 -2.9942445755 -6.8558220863 1.7544157505
          8.7486991882 -24.355485916 0.60535436869 -1.5794612169 -17.733732224 -0.66156965494
          -0.15074905753 -21.641843796 -0.52876573801 -1.5934737921 -16.630807877 1.2761993408
          16.301734924 -28.289648056 -0.31167715788 0 0 0
          -1.8651139736 -13.365784645 1.2062185988e-06 2.7966024876 -23.979049683 6.6304164648e-07
          0.015271835029 -3.7583448887 0.0080610411242 12.988542557 -27.984319687 -0.30244746804
          0.01476150658 -3.756200552 -0.0023472732864 -1.0313004255 -19.494117737 9.4299264219e-07
          9.7150831223 -27.695798874 -0.58841067553 -1.5751857758 -17.71191597 1.053215442e-06
          -0.12503433228 -21.628164291 8.547506809e-07 16.30594635 -28.292804718 1.6699662808e-07
          0 0 0 0.027202529833 -7.9218840599 -0.0087380399927
          9.7265005112 -27.700767517 -0.29233562946 12.992619514 -27.98651886 2.8822782383e-07
          -2.0572245121 -14.900700569 1.443351984 0.61447203159 -21.111103058 0.92774146795
          0.012169149704 -3.8644702435 7.5771117736e-07 0.023284327239 -8.417840004 -0.0069510894828
          5.6141028404 -24.127090454 0.59839564562 -2.4784078598 -10.216200829 1.727181673
          -1.6310389042 -16.213832855 -1.3618769646 1.2931140661 -24.317182541 -0.89044648409
          -1.8698637486 -13.39936161 0.76764416695 2.7812037468 -23.978248596 0.32689619064
          -1.5028736591 -16.332170486 -0.66784900427 1.3477429152 -24.237569809 -0.42664831877
          -1.049478054 -19.508623123 0.60134702921 9.7305812836 -27.700305939 4.1449240484e-07
          0.021374477074 -8.3779315948 1.4806209947e-06 6.4994077682 -27.464332581 -0.58255261183
          -1.5794613361 -17.733732224 0.6615717411 -0.15074907243 -21.641843796 0.52876740694
          16.301734924 -28.289648056 0.3116774857 0 0 0
          0.046725768596 -11.378498077 -0.015023250133 6.5103111267 -27.454158783 -0.29167789221
          12.988542557 -27.984319687 0.30244803429 0.046358153224 -11.935476303 -0.0093886870891
          -1.5143716335 -16.29152298 1.1962556528e-06 1.3794369698 -24.237667084 7.7079272387e-07
          0.014761321247 -3.756200552 0.0023486895952 9.7265005112 -27.700769424 0.29233643413
          6.5138478279 -27.451944351 5.4528572946e-07 0.045027460903 -11.890730858 1.5017898249e-06
          2.7566022873 -24.019384384 0.65751773119 -0.58887165785 -22.435903549 -1.1169838905
          0.023283960298 -8.417840004 0.0069539910182 -2.0108418465 -13.339934349 1.5579497814
          -1.2439447641 -20.479877472 -1.187261343 -0.5219655633 -22.426492691 -0.55668771267
          -1.1160100698 -19.546524048 1.2139803171 -1.1683863401 -20.514837265 -0.59263807535
          -1.5028738976 -16.332170486 0.66785138845 1.3477430344 -24.237569809 0.42664983869
          -0.2093347013 -21.706003189 1.0682277679 -1.6617467403 -17.743736267 1.3318701982
          0.061859220266 -14.337572098 -0.018375413492 3.5574295521 -27.335874557 -0.64285057783
          16.29045105 -28.27841568 0.62553757429 0 0 0
          12.97723484 -27.973163605 0.60823458433 0.061827465892 -14.882302284 -0.010253235698
          -0.5141043067 -22.408838272 9.5504765341e-07 -1.2970634699 -18.864248276 -1.138350606
          0.42580401897 -24.767860413 -1.0012905598 3.5793790817 -27.296070099 -0.31865206361
          0.015272021294 -3.7583448887 -0.0080599375069 -1.1775040627 -20.491327286 1.0498732763e-06
          6.5103111267 -27.45416069 0.29167896509 0.046357754618 -11.935476303 0.0093916710466
          0.47983515263 -24.721740723 -0.49672940373 -1.1929385662 -19.039518356 -0.55803453922
          9.7150831223 -27.695800781 0.58841150999 0.060595422983 -14.826067924 1.4483890709e-06
          3.5926961899 -27.296154022 6.7519272307e-07 0.027202052996 -7.9218840599 0.0087406514212
          0.49313247204 -24.705301285 8.6922841547e-07 17.328155518 -31.625762939 -0.61615568399
          0 0 0 -1.2184835672 -19.002470016 1.1732169014e-06
          17.334907532 -31.638530731 -0.30709159374 0 0 0
          -0.5219656229 -22.426494598 0.55668962002 13.980587959 -31.325395584 -0.59703868628
          -1.6310392618 -16.213832855 1.3618793488 1.2931141853 -24.317182541 0.89044797421
          1.6108253002 -3.0784101486 -0.43790665269 -1.1683865786 -20.514837265 0.59264022112
          13.987715721 -31.337692261 -0.29707461596 1.8865160942 -3.1444513798 -0.10484732687
          6.4994077682 -27.464332581 0.58255368471 17.338035583 -31.642177582 1.6791337032e-07
          0.06182706356 -14.882302284 0.010256128386 10.663047791 -31.050634384 -0.57655239105
          3.1160650253 -6.7976155281 1.7449799776 3.5793790817 -27.296070099 0.31865340471
          0 0 0 2.046184063 -27.525978088 -0.84506845474
          0.073779888451 -17.03521347 -0.021004183218 0.046725086868 -11.378498077 0.01502610743
          3.0913965702 -6.5459074974 0.85093486309 10.671729088 -31.05673027 -0.28674679995
          13.990535736 -31.340368271 2.8916326755e-07 0.47983515263 -24.721740723 0.49673113227
          0.073564983904 -17.549667358 -0.010999773629 2.0958673954 -27.460048676 -0.40693244338
          -1.1929388046 -19.039518356 0.5580368638 1.8824537992 -3.3505783081 5.4188990362e-07
          -0.78585422039 -23.143693924 -1.0166959763 10.674995422 -31.057008743 4.1572030796e-07
          -0.58887177706 -22.435905457 1.1169857979 3.0825259686 -6.5328655243 1.3555423948e-06
          0.072176881135 -17.499225616 1.3773591263e-06 -0.71742147207 -23.224546432 -0.5126401782
          2.1186797619 -27.456758499 7.839531122e-07 -1.2439450026 -20.479877472 1.1872633696
          17.334907532 -31.638530731 0.30709192157 7.3774671555 -30.814254761 -0.57063776255
          -0.97935712337 -21.33650589 -0.9084931016 0 0 0
          2.625667572 -10.175218582 1.7344763279 -0.010983568616 -25.300666809 -0.99120855331
          2.4824590683 -10.168280602 0.85714370012 7.386695385 -30.806417465 -0.28566265106
          13.987715721 -31.337692261 0.2970751822 -0.90386784077 -21.551807404 -0.44931831956
          0.05443983525 -25.325605392 -0.49858292937 1.8865158558 -3.1444511414 0.10484835505
          0.061858523637 -14.337572098 0.018378231674 3.5574295521 -27.335874557 0.64285188913
          -0.73521858454 -23.21071434 1.0383927247e-06 -1.2970639467 -18.864248276 1.1383529902
          0.42580398917 -24.76786232 1.0012922287 7.3896856308 -30.805273056 5.4586183751e-07
          10.671729088 -31.05673027 0.28674760461 -0.9382802248 -21.531435013 1.1412308822e-06
          3.0913963318 -6.5459074974 -0.85093218088 2.4665346146 -10.141615868 1.4254925418e-06
          0.073564581573 -17.549667358 0.011002532206 2.0958673954 -27.460050583 0.4069339931
          0.054777015001 -25.313890457 9.5140518397e-07 1.1323741674 -27.81504631 -0.91426873207
          0.084108144045 -19.495954514 -0.022915573791 1.1808462143 -27.793586731 -0.4561342001
          0.083205729723 -19.966409683 -0.011694379151 17.328155518 -31.625762939 0.61615604162
          0 0 0 -0.71742165089 -23.224546432 0.51264226437
          2.1706724167 -13.322263718 1.5585997105 4.3843593597 -30.665361404 -0.62969595194
          2.0264174938 -13.384774208 0.76651567221 13.980587959 -31.325395584 0.59703922272
          1.6108255386 -3.0784096718 0.43790763617 4.4046111107 -30.629514694 -0.31139066815
          7.386695385 -30.806417465 0.28566375375 -0.90386807919 -21.551807404 0.44932061434
          2.4824585915 -10.168280602 -0.8571408391 0.05443976447 -25.325605392 0.49858483672
          1.183838129 -27.779033661 8.7258342774e-07 0.081571362913 -19.940223694 1.2953516944e-06
          10.663047791 -31.050636292 0.57655322552 3.1160647869 -6.7976150513 -1.744977355
          2.046184063 -27.525979996 0.84506994486 2.0222668648 -13.350084305 1.3940879171e-06
          0.073779188097 -17.03521347 0.021006897092 4.4159312248 -30.629611969 6.7546955052e-07
          18.354816437 -34.996559143 -0.6135725975 0 0 0
          -0.78585445881 -23.143693924 1.016698122 1.1808462143 -27.793586731 0.45613592863
          0 0 0 14.969096184 -34.698535919 -0.5906842947
          -0.65993750095 -23.727388382 -0.70105844736 0.083205334842 -19.966409683 0.011696972884
          1.5720746517 -2.1801261902 -0.89497804642 -0.29937243462 -25.783475876 -0.83774524927
          18.358186722 -35.012447357 -0.30599191785 7.3774671555 -30.814256668 0.57063883543
          14.973278999 -34.713661194 -0.29416006804 1.5626599789 -2.3767313957 -0.25477841496
          -0.97935754061 -21.33650589 0.90849536657 -0.60611557961 -23.958255768 -0.35225313902
          2.6256670952 -10.175217628 -1.7344735861 2.8678834438 -30.742610931 -0.7902649045
          2.0264172554 -13.384774208 -0.76651293039 -0.010983688757 -25.300666809 0.99121040106
          1.803917408 -16.214151382 1.3554323912 4.4046111107 -30.629514694 0.31139200926
          -0.23691292107 -25.898347855 -0.42767718434 1.6716413498 -16.337770462 0.66353398561
          2.9126639366 -30.695211411 -0.38395553827 11.597697258 -34.425010681 -0.56758677959
          18.360641479 -35.017189026 1.5224148342e-07 3.3164522648 -5.2769913673 0.91763687134
          0 0 0 11.605115891 -34.434085846 -0.28268119693
          3.6073131561 -5.0618290901 0.48585247993 14.975232124 -34.717468262 2.746003247e-07
          0.60335677862 -28.154376984 -0.85499078035 -0.64128303528 -23.962041855 1.1013682979e-06
          -0.25616025925 -25.901128769 1.0169875395e-06 0.094270907342 -21.773273468 -0.024556724355
          1.6747386456 -2.5499899387 2.7815693215e-07 0.66394227743 -28.20791626 -0.43339321017
          2.9277567863 -30.690944672 7.8928405856e-07 0.09235932678 -22.186920166 -0.012493522838
          1.6836111546 -16.295444489 1.3303541664e-06 1.1323741674 -27.81504631 0.91427046061
          11.60790062 -34.435848236 4.0245768673e-07 0.084107466042 -19.495954514 0.02291813679
          3.5563442707 -5.1004137993 9.7356371498e-07 8.2525701523 -34.182682037 -0.5593367815
          18.358186722 -35.012447357 0.30599224567 0.6598252058 -28.204921722 9.4086891522e-07
          3.1241517067 -8.6638936996 1.5791814327 2.1706717014 -13.322263718 -1.5585969687
          0.090427398682 -22.187759399 1.2093640862e-06 4.3843593597 -30.665361404 0.62969726324
          0 0 0 8.261595726 -34.179428101 -0.28000757098
          3.0638582706 -8.5406951904 0.7724879384 14.973278999 -34.713661194 0.29416060448
          -0.60611581802 -23.958255768 0.35225534439 -0.23691305518 -25.898347855 0.4276792109
          1.5626598597 -2.3767311573 0.2547789216 2.9126639366 -30.695211411 0.3839571178
          1.671640873 -16.337770462 -0.66353130341 11.605115891 -34.434085846 0.28268197179
          8.2641525269 -34.180198669 5.3341801731e-07 1.8963860273 -30.86853981 -0.81723576784
          1.4832291603 -18.877498627 1.1227816343 3.0246052742 -8.5510644913 1.1563442968e-06
          3.6073129177 -5.0618290901 -0.48585057259 1.3742694855 -19.060836792 0.54947847128
          0.66394221783 -28.20791626 0.43339505792 1.9396080971 -30.872808456 -0.41043764353
          0.092358931899 -22.186920166 0.01249593962 5.2373785973 -34.009746552 -0.61460530758
          18.354816437 -34.996559143 0.61357289553 0 0 0
          2.6308953762 -11.872094154 1.5247603655 5.2584996223 -33.981014252 -0.30362248421
          14.969096184 -34.698535919 0.59068483114 2.5535535812 -11.792534828 0.75203388929
          -0.65993791819 -23.727388382 0.70106059313 1.9359647036 -30.863779068 8.712224826e-07