<?xml version="1.0"?>
<VTKFile type="UnstructuredGrid" version="0.1" byte_order="LittleEndian" header_type="UInt32" compressor="vtkZLibDataCompressor">
  <UnstructuredGrid>
    <Piece NumberOfPoints="6405" NumberOfCells="4800">
      <PointData>
        <DataArray type="Float32" Name="DISPLACEMENT" NumberOfComponents="3" ComponentName0="X-DISPLACEMENT" ComponentName1="Y-DISPLACEMENT" ComponentName2="Z-DISPLACEMENT" format="ascii" RangeMin="0" RangeMax="311.53875142">
          0 0 0 0 0 0
          2.4420163631 -1.4693294764 -1.1184301376 0 0 0
          1.4790630341 -0.85106271505 -0.80096369982 0 0 0
          2.2410802841 -1.6543427706 -0.4408378005 1.2866399288 -1.0076118708 -0.3257098496
          0 0 0 4.3937783241 -2.9027414322 -1.1351739168
          0 0 0 4.3373794556 -3.112821579 -0.58198130131
          2.9686822891 -2.4316878319 -0.89363878965 0 0 0
          0 0 0 2.2517783642 -1.7097465992 -1.329136694e-07
          0.92105799913 -0.55353760719 -0.52144086361 1.2808660269 -1.033665061 -2.9985073979e-08
          2.9042274952 -2.6020879745 -0.45475974679 0.78062593937 -0.69957238436 -0.21153500676
          4.2904071808 -3.1703670025 -1.9154822439e-07 1.8766151667 -2.0828518867 -0.64110052586
          0 0 0 2.8659155369 -2.6546571255 -1.0811395335e-08
          1.7935279608 -2.2328050137 -0.32892903686 0 0 0
          6.1161823273 -4.8070902824 -1.046857357 0 0 0
          0.77271068096 -0.71759086847 5.9272750264e-08 0 0 0
          0 0 0 2.2410802841 -1.6543428898 0.44083756208
          4.3422102928 -4.3727936745 -0.85900479555 6.1389250755 -4.9562726021 -0.53309959173
          0.19624112546 -0.39363101125 -0.20962515473 1.2866399288 -1.00761199 0.32570981979
          4.3583607674 -4.5117135048 -0.43687066436 0.066974751651 -0.5550724268 -0.10929942876
          1.76162076 -2.2753531933 1.6142405457e-07 4.3373799324 -3.1128220558 0.58198088408
          0 0 0 0 0 0
          0.61975634098 -1.8865562677 -0.44068199396 2.8619556427 -4.0744943619 -0.68368804455
          6.1229195595 -5.0090932846 -2.1095361546e-07 2.9042277336 -2.602088213 0.45475974679
          2.8453643322 -4.1971278191 -0.34877201915 0.78062599897 -0.69957256317 0.21153514087
          4.3487195969 -4.5575766563 4.427744571e-08 0.52540850639 -2.0129311085 -0.22623312473
          0.047069735825 -0.57375687361 1.4837998208e-07 0 0 0
          7.6677241325 -6.9563059807 -0.91814225912 0 0 0
          5.6387104988 -6.5581016541 -0.78559887409 1.7935281992 -2.2328054905 0.32892936468
          7.7164106369 -7.0604510307 -0.4652326405 2.4420163631 -1.4693299532 1.1184300184
          0 0 0 0 0 0
          0.50204926729 -2.0544202328 3.3305099123e-07 2.8342754841 -4.2397055626 2.930101175e-07
          -0.17908959091 -0.64085763693 -0.24416315556 5.6811614037 -6.6607732773 -0.39684411883
          1.4790631533 -0.85106307268 0.80096369982 1.3949842453 -3.8643462658 -0.55846148729
          0 0 0 6.1389250755 -4.9562730789 0.5330991745
          -0.27429789305 -0.70235604048 -0.10555012524 1.3651412725 -3.9699046612 -0.26958420873
          4.3583607674 -4.5117144585 0.43687075377 0.066974751651 -0.55507260561 0.10929973423
          3.868844986 -6.2406315804 -0.65783578157 -0.029539303854 -2.036370039 -0.4010746181
          7.7168750763 -7.0969109535 -1.9190166256e-07 4.393778801 -2.9027423859 1.1351735592
          0 0 0 0 0 0
          3.8866891861 -6.34329319 -0.33208957314 2.9686825275 -2.4316885471 0.89363884926
          5.6872572899 -6.6967968941 1.2476529321e-07 -0.027923811227 -2.1219792366 -0.17632982135
          0.92105823755 -0.55353796482 0.52144104242 -0.26521450281 -0.77028983831 3.3965650914e-07
          1.3448351622 -4.0047087669 5.6428154949e-07 2.8453645706 -4.1971282959 0.34877261519
          0.5254086256 -2.0129315853 0.22623381019 3.8864684105 -6.3788442612 4.3702559083e-07
          1.8766155243 -2.082852602 0.64110088348 -0.031970839947 -2.1738548279 6.3993604726e-07
          2.2816939354 -5.9935679436 -0.51713222265 7.7164111137 -7.0604519844 0.46523225307
          6.1161828041 -4.8070912361 1.0468569994 0 0 0
          9.0625658035 -9.2738313675 -0.8087836504 0 0 0
          0 0 0 0.27344807982 -3.8022663593 -0.33711516857
          2.2790095806 -6.1043653488 -0.25808954239 9.1110448837 -9.345243454 -0.40675351024
          6.8562402725 -8.9031677246 -0.71473801136 5.6811618805 -6.660774231 0.39684438705
          -0.98882484436 -0.8222630024 -0.19185100496 0 0 0
          4.3422107697 -4.3727946281 0.85900491476 0.19624127448 -0.39363133907 0.20962549746
          0.28669336438 -3.9316320419 -0.17728604376 -0.27429786325 -0.70235621929 0.10555080324
          -1.0095621347 -0.87385642529 -0.10949509591 1.3651416302 -3.9699053764 0.26958537102
          6.8991751671 -8.9780654907 -0.35849943757 3.8866894245 -6.3432936668 0.33209046721
          2.2677588463 -6.1351485252 7.768761634e-07 9.1180467606 -9.3706026077 -1.3815026989e-07
          -0.93945986032 -2.2350215912 -0.27645161748 -0.027923675254 -2.1219797134 0.17633110285
          0 0 0 4.8951807022 -8.5831308365 -0.6148725152
          0.61975675821 -1.886556983 0.44068276882 2.8619561195 -4.0744953156 0.6836887002
          0.27415722609 -3.9574787617 9.2672559049e-07 6.9097337723 -9.0040054321 2.2421262713e-07
          -0.97263896465 -0.92732059956 6.5712072228e-07 -0.95246857405 -2.3206984997 -0.12606054544
          4.9146504402 -8.6624269485 -0.30790239573 7.6677246094 -6.9563074112 0.91814190149
          0 0 0 0.59235107899 -5.8456058502 -0.29540127516
          5.6387109756 -6.5581030846 0.78559911251 -0.94511681795 -2.350407362 9.7591237136e-07
          0.58533895016 -5.977499485 -0.16931860149 4.918492794 -8.6877384186 5.7744762216e-07
          -0.17908918858 -0.64085811377 0.24416394532 2.279009819 -6.1043663025 0.25809109211
          3.0508718491 -8.3306102753 -0.49192726612 9.1110448837 -9.3452444077 0.40675324202
          -0.72994601727 -4.0673422813 -0.30931162834 1.3949848413 -3.8643474579 0.55846267939
          0 0 0 0.28669348359 -3.9316325188 0.17728789151
          3.0420558453 -8.4142837524 -0.25043427944 -1.009562254 -0.87385648489 0.10949645191
          -0.79055505991 -4.1275444031 -0.11675515026 6.8991751671 -8.9780664444 0.35849988461
          3.8688454628 -6.240632534 0.65783667564 -0.02953883633 -2.0363709927 0.4010759294
          10.317986488 -11.708061218 -0.72319561243 0 0 0
          0.59062129259 -6.0087003708 1.1284510038e-06 7.988067627 -11.372794151 -0.65946614742
          10.357916832 -11.756653786 -0.36253494024 0 0 0
          -0.18224950135 -1.2695277929 0.015669154003 8.0229969025 -11.424739838 -0.32902881503
          3.0419538021 -8.4382143021 9.3934687584e-07 -0.21356786788 -1.3336538076 -0.001479642815
          -0.95246845484 -2.3206989765 0.1260625124 -0.76681929827 -4.1727466583 1.2202060589e-06
          4.9146509171 -8.6624279022 0.30790355802 5.8623809814 -11.098276138 -0.59135150909
          -0.58721101284 -2.6209590435 -0.091691188514 10.365736961 -11.774106026 -5.3330612815e-08
          0 0 0 -0.63306903839 -2.6999652386 -0.041722908616
          5.8772773743 -11.149672508 -0.29389134049 8.0330715179 -11.442792892 3.4125480397e-07
          -0.22127042711 -1.3501050472 5.3204661299e-07 2.2816944122 -5.9935693741 0.51713377237
          0.98709851503 -8.152428627 -0.37104985118 9.0625667572 -9.2738332748 0.80878341198
          0 0 0 -0.46278780699 -6.1365690231 -0.41727513075
          0.58533900976 -5.9774999619 0.16932083666 0.27344846725 -3.8022675514 0.33711695671
          6.8562407494 -8.903169632 0.71473842859 -0.98882448673 -0.82226365805 0.19185249507
          -0.53715205193 -6.1357073784 -0.1560537219 0.96271812916 -8.238243103 -0.19144538045
          3.0420560837 -8.4142847061 0.25043615699 -0.7905548811 -4.1275448799 0.1167576015
          5.8824267387 -11.166071892 7.2471453905e-07 -0.63657706976 -2.7228996754 1.1099842823e-06
          3.8274958134 -10.912910461 -0.52346050739 -0.95512753725 -4.4207482338 -0.13419385254
          -0.93945932388 -2.2350225449 0.27645364404 10.357916832 -11.756654739 0.36253485084
          4.895181179 -8.5831327438 0.61487364769 0 0 0
          0.97402399778 -8.2642974854 1.3085123101e-06 -0.50753480196 -6.1910543442 1.4235758954e-06
          3.8151907921 -10.951799393 -0.26133900881 8.0229978561 -11.424740791 0.32902950048
          -1.0176243782 -4.498032093 -0.10685881227 -0.21356779337 -1.3336539268 0.0014807146508
          0.59235137701 -5.8456068039 0.29540354013 3.8164823055 -10.966348648 1.1151196304e-06
          5.8772773743 -11.149673462 0.29389280081 -0.63306891918 -2.699965477 0.041725132614
          -0.97241258621 -4.4916567802 1.5765992885e-06 11.453855515 -14.213516235 -0.66013383865
          0 0 0 11.484108925 -14.2469244 -0.33065140247
          3.0508725643 -8.3306121826 0.49192920327 9.0315876007 -13.910298347 -0.61709809303
          -0.72994536161 -4.0673437119 0.30931416154 -0.072056889534 -8.4055757523 -0.54569643736
          -0.16469480097 -1.5111706257 0.040695834905 -0.5371517539 -6.1357078552 0.15605664253
          0.96271836758 -8.2382440567 0.19144803286 0 0 0
          9.05884552 -13.946055412 -0.30729660392 -0.10162259638 -8.3759937286 -0.22313980758
          -0.17540921271 -1.5385490656 0.021518494934 1.6863760948 -10.763262749 -0.51120018959
          -1.2624492645 -6.5641021729 -0.58887797594 10.317987442 -11.708063126 0.72319549322
          0 0 0 7.9880681038 -11.372796059 0.65946680307
          11.491153717 -14.259174347 5.5555208434e-08 -1.3169225454 -6.462720871 -0.26383107901
          1.6515674591 -10.781257629 -0.2421336472 -0.1822489053 -1.2695280313 -0.015668015927
          6.7615756989 -13.671265602 -0.57229208946 -0.43920841813 -3.0909869671 -0.0032190701459
          0 0 0 3.8151910305 -10.951800346 0.26134127378
          -1.0176244974 -4.4980330467 0.10686195642 9.0670824051 -13.95851326 4.7006466275e-07
          -0.080397509038 -8.4193534851 1.7076536096e-06 6.7773351669 -13.703187943 -0.28415518999
          -0.47319275141 -3.1399219036 0.0056805582717 -0.1803509593 -1.553006649 5.3733361938e-07
          5.8623814583 -11.098278046 0.59135299921 -0.58721035719 -2.6209595203 0.091693274677
          1.6456129551 -10.792155266 1.5443442862e-06 -1.2892457247 -6.4796066284 1.8461987565e-06
          0.98709923029 -8.1524305344 0.3710526526 6.7821941376 -13.713588715 8.7989485564e-07
          -0.48031646013 -3.1533901691 1.180062668e-06 -0.46278700233 -6.1365704536 0.41727823019
          11.484108925 -14.246925354 0.33065149188 4.5835113525 -13.521369934 -0.53809022903
          0 0 0 -0.79733544588 -4.8891592026 -0.071699537337
          4.5854115486 -13.538041115 -0.26863816381 9.05884552 -13.946056366 0.30729752779
          -0.1754090935 -1.5385491848 -0.021517448127 -0.10162214935 -8.3759946823 0.22314332426
          -0.85202306509 -4.9475879669 -0.027097605169 3.8274965286 -10.912912369 0.52346283197
          0.39410597086 -10.86628437 -0.55472767353 1.6515680552 -10.781258583 0.24213680625
          -0.95512723923 -4.4207496643 0.13419692218 -1.3169225454 -6.4627213478 0.2638348937
          -0.92703974247 -8.8420772552 -0.67286163568 0.41025105119 -10.8635149 -0.26916572452
          4.5858263969 -13.546040535 1.3059478761e-06 6.7773356438 -13.703188896 0.28415694833
          -0.47319251299 -3.139922142 -0.0056782104075 -0.92773205042 -8.7630596161 -0.31705456972
          -0.88380879164 -4.9653735161 1.8366595214e-06 12.50249958 -16.751077652 -0.61880606413
          0 0 0 -0.13674633205 -1.6766858101 0.047260560095
          0.43124809861 -10.882119179 2.0576987936e-06 2.4919576645 -13.414639473 -0.55028694868
          10.008975983 -16.465284348 -0.58434724808 11.453856468 -14.213518143 0.66013395786
          0 0 0 0 0 0
          -0.9100446105 -8.762635231 2.2721951609e-06 -1.159666419 -6.8461809158 -0.09019009769
          12.523641586 -16.777626038 -0.30974441767 2.4787311554 -13.412096977 -0.26796519756
          10.029420853 -16.49382019 -0.29071804881 9.0315885544 -13.910300255 0.61709904671
          -0.13560967147 -1.6876424551 0.022367151454 -0.072055958211 -8.4055776596 0.54570007324
          -0.16469408572 -1.5111708641 -0.04069468379 -1.2826759815 -6.953294754 -0.12900172174
          4.5854120255 -13.538042068 0.26864078641 -0.85202282667 -4.9475879669 0.0271012187
          7.614505291 -16.237258911 -0.5463963151 1.6863771677 -10.763264656 0.51120346785
          -1.2624486685 -6.5641036034 0.58888185024 0 0 0
          -0.35488665104 -3.4066104889 0.034264653921 12.529839516 -16.787290573 1.7383902673e-07
          -0.13885843754 -1.6945552826 5.4317973763e-07 2.4648742676 -13.414416313 1.7874791638e-06
          7.6321191788 -16.261808395 -0.27105560899 6.7615761757 -13.671267509 0.5722938776
          10.035709381 -16.503314972 5.9674016484e-07 -0.43920746446 -3.0909874439 0.0032213882077
          -1.2837010622 -6.9414949417 2.4617645522e-06 -0.36932194233 -3.4314107895 0.024201417342
          0.41025149822 -10.863515854 0.26916986704 -0.92773199081 -8.7630596161 0.31705918908
          -0.53746587038 -11.291337013 -0.68344289064 7.6364212036 -16.268871307 1.0248908211e-06
          -0.37686815858 -3.443505764 1.2450634586e-06 -0.52744948864 -11.236457825 -0.32047381997
          5.3189435005 -16.090515137 -0.51715862751 0 0 0
          -0.64526426792 -5.2716135979 0.026569016278 12.523641586 -16.777626038 0.3097447753
          -0.13560950756 -1.6876424551 -0.022366080433 2.4787318707 -13.412097931 0.26796880364
          5.333381176 -16.100812912 -0.25677862763 4.5835118294 -13.521371841 0.53809291124
          10.029420853 -16.49382019 0.2907192111 0.87966740131 -13.420445442 -0.54233026505
          -1.859459877 -9.2435798645 -0.71676832438 -0.7973344326 -4.8891601562 0.071703001857
          -0.68360435963 -5.3228116035 0.015302160755 -1.2826759815 -6.9532952309 0.12900659442
          0.90077966452 -13.418732643 -0.27743184566 -1.8643625975 -9.1871366501 -0.37687507272
          -0.4998716712 -11.248867035 2.6190843982e-06 0.39410686493 -10.866286278 0.55473178625
          7.6321191788 -16.261810303 0.27105766535 -0.92703914642 -8.8420791626 0.67286616564
          5.3338732719 -16.103633881 1.4736931462e-06 -0.3693216145 -3.4314107895 -0.024198932573
          -0.69811284542 -5.3382782936 2.0083355139e-06 0.92553091049 -13.427229881 2.3127686291e-06
          -1.8573511839 -9.1606674194 3.0573435197e-06 -1.0271756649 -7.3550643921 -0.039865594357
          3.1860101223 -16.022575378 -0.51586765051 12.50249958 -16.751079559 0.61880636215
          0 0 0 -0.52744936943 -11.236458778 0.32047906518
          -0.13674552739 -1.6766859293 -0.047259360552 -1.0940071344 -7.423992157 -0.0089600440115
          2.4919588566 -13.41464138 0.55029058456 10.008975983 -16.465286255 0.58434844017
          3.1899580956 -16.01263237 -0.2585606873 13.504940033 -19.308349609 -0.59782373905
          0 0 0 -1.1596657038 -6.8461818695 0.090194664896
          13.517546654 -19.335395813 -0.29864728451 -0.096967674792 -1.7784618139 0.042527846992
          10.947034836 -19.027231216 -0.56105875969 5.3333816528 -16.100814819 0.25678157806
          0 0 0 -0.6836040616 -5.3228116035 -0.015298198909
          10.960530281 -19.056106567 -0.27887564898 -0.089755110443 -1.7806044817 0.019041512161
          0.90078008175 -13.41873455 0.27743646502 -1.8643627167 -9.1871376038 0.37688112259
          7.614505291 -16.237260818 0.54639834166 -1.1279821396 -7.452067852 2.7786225019e-06
          3.1797664165 -16.010665894 1.9698447886e-06 -0.35488545895 -3.4066107273 -0.03426219523
          -0.13768664002 -13.810764313 -0.68372529745 -0.23356503248 -3.5956325531 0.046469192952
          8.4406299591 -18.795322418 -0.51858741045 -1.4783673286 -11.732047081 -0.7549507618
          13.522567749 -19.344686508 2.8195597679e-07 0 0 0
          -0.11131522059 -13.766075134 -0.3186776042 10.965022087 -19.064981461 7.0433583232e-07
          -0.091099284589 -1.784807086 5.4703667729e-07 8.455824852 -18.820238113 -0.25627708435
          -0.23481191695 -3.6068947315 0.02696829848 -1.4615393877 -11.673194885 -0.38181680441
          -0.53746551275 -11.291339874 0.68344807625 -0.086749970913 -13.78202343 2.8247834507e-06
          -1.4157891273 -9.559923172 -0.067412808537 -1.0940070152 -7.4239926338 0.0089654782787
          1.4229664803 -16.065563202 -0.56022381783 8.4590911865 -18.825235367 1.1381192735e-06
          5.3189439774 -16.090517044 0.51716160774 3.1899585724 -16.012634277 0.25856459141
          -1.4582407475 -11.657171249 3.2718123748e-06 -0.23626515269 -3.6141290665 1.2684088233e-06
          -0.64526313543 -5.2716140747 -0.026565218344 13.517547607 -19.33539772 0.29864782095
          6.0215320587 -18.644363403 -0.47762474418 -1.5777789354 -9.7063426971 -0.14069217443
          -0.42046862841 -5.5464806557 0.048659563065 1.4425239563 -16.042528152 -0.27630159259
          0.87966817617 -13.420448303 0.5423348546 -1.8594597578 -9.2435817719 0.71677440405
          0 0 0 -0.42986905575 -5.5704417229 0.03070714511
          10.960530281 -19.056106567 0.27887704968 -0.089754939079 -1.7806044817 -0.019040428102
          6.0361962318 -18.653606415 -0.23555773497 -1.5702762604 -9.6969594955 3.4391086956e-06
          1.4623464346 -16.045806885 2.4557450615e-06 -0.11131515354 -13.766076088 0.31868323684
          6.0349464417 -18.653352737 1.597227083e-06 -0.43923458457 -5.5864453316 2.0636011868e-06
          8.455824852 -18.820238113 0.25627934933 -0.23481157422 -3.6068947315 -0.02696576342
          -1.4615395069 -11.673195839 0.38182333112 -1.0271748304 -7.3550653458 0.039870731533
          3.186011076 -16.022577286 0.51587152481 3.755269289 -18.595317841 -0.47590681911
          13.504940033 -19.308351517 0.59782421589 0 0 0
          -0.65360844135 -7.6769900322 0.061320032924 -0.096966840327 -1.7784618139 -0.042526625097
          10.947034836 -19.027233124 0.5610601306 -1.5777791739 -9.7063426971 0.14069904387
          1.4425244331 -16.04253006 0.27630650997 3.7610938549 -18.578449249 -0.23810246587
          -1.0593501329 -14.279185295 -0.74920117855 -0.69024175406 -7.7360768318 0.032310586423
          -0.42986872792 -5.5704417229 -0.030703073367 6.0361962318 -18.653606415 0.23556092381
          -1.0356575251 -14.230517387 -0.36879977584 0.27905246615 -16.371448517 -0.64899861813
          -2.2659556866 -12.220345497 -0.83802521229 14.493886948 -21.90073967 -0.59242153168
          0 0 0 11.866959572 -21.6180439 -0.54824155569
          -0.13768643141 -13.81076622 0.68373090029 -0.23356381059 -3.5956325531 -0.046466678381
          8.4406299591 -18.795324326 0.51858961582 -2.2666862011 -12.159396172 -0.42014235258
          0.30539044738 -16.333953857 -0.3116903007 -1.4783673286 -11.732048988 0.7549572587
          14.499150276 -21.93223381 -0.2953132391 0 0 0
          -0.70932996273 -7.7590184212 2.8606248179e-06 3.7512283325 -18.575260162 2.0796185254e-06
          -0.041878793389 -1.809240222 0.031534351408 11.873234749 -21.650838852 -0.27254983783
          -0.032588031143 -1.8081873655 0.013152796775 -1.0340504646 -14.21863842 3.3728331346e-06
          9.2525434494 -21.375860214 -0.49839830399 -2.2577285767 -12.143855095 3.8988091546e-06
          0.31812435389 -16.336267471 2.9304001146e-06 14.502542496 -21.942447662 3.6159022443e-07
          0 0 0 -0.075343929231 -3.6545610428 0.04167464748
          9.262635231 -21.405090332 -0.245669052 11.875786781 -21.660505295 7.7769209383e-07
          -1.4157887697 -9.5599241257 0.067419178784 1.4229671955 -16.065565109 0.56022870541
          -0.0319577232 -1.8110134602 5.3712864201e-07 -0.068233020604 -3.658156395 0.021501710638
          6.0215320587 -18.644365311 0.47762787342 -0.42046737671 -5.5464806557 -0.048655655235
          -1.0185263157 -10.028633118 0.020679907873 1.9938892126 -18.69210434 -0.56275391579
          -0.69024157524 -7.7360768318 -0.032304991037 3.7610940933 -18.578449249 0.23810660839
          -1.1057386398 -10.12182045 -0.0044539333321 2.0123605728 -18.655607224 -0.27013653517
          -1.0356577635 -14.230518341 0.36880651116 9.2658863068 -21.410690308 1.2068366004e-06
          -0.065835401416 -3.6638379097 1.2405033658e-06 6.6869802475 -21.211914062 -0.44587650895
          -2.2666866779 -12.159397125 0.42015016079 0.30539053679 -16.333955765 0.31169614196
          14.499150276 -21.93223381 0.29531395435 0 0 0
          -0.10654642433 -5.6266188622 0.049538634717 6.6890358925 -21.223085403 -0.22236958146
          11.873234749 -21.650838852 0.27255135775 -0.10112335533 -5.6417775154 0.02589196898
          -1.1283223629 -10.171038628 3.6364347125e-06 2.0240569115 -18.65316391 2.5183564958e-06
          -0.032587870955 -1.8081872463 -0.013151733205 9.262635231 -21.405092239 0.24567145109
          6.6810083389 -21.222240448 1.6474417635e-06 -0.099564626813 -5.6537146568 2.003924692e-06
          3.7552697659 -18.595319748 0.47591090202 -0.64665800333 -16.843923569 -0.71607095003
          -0.068232700229 -3.6581561565 -0.021499229595 -0.65360754728 -7.6769900322 -0.061314765364
          -1.7959983349 -14.827122688 -0.85344618559 -0.63587224483 -16.795856476 -0.34516686201
          -1.0593503714 -14.279187202 0.74920785427 -1.7881515026 -14.759628296 -0.41212043166
          -1.1057391167 -10.12182045 0.0044609983452 2.0123608112 -18.655609131 0.27014157176
          0.27905258536 -16.371450424 0.64900434017 -2.2659561634 -12.220347404 0.83803296089
          -0.13759943843 -7.7959823608 0.059004943818 4.2704281807 -21.147729874 -0.44469699264
          14.493886948 -21.900741577 0.59242218733 0 0 0
          11.866959572 -21.618045807 0.54824304581 -0.13337227702 -7.8293795586 0.03052004613
          -0.64225465059 -16.782848358 3.3694595913e-06 -1.5542024374 -12.706583023 -0.23697388172
          0.71553820372 -18.917922974 -0.61486625671 4.2655391693 -21.131383896 -0.22398413718
          -0.04187797755 -1.8092401028 -0.03153315559 -1.7892557383 -14.743853569 3.8474822759e-06
          6.6890358925 -21.223085403 0.22237287462 -0.1011230275 -5.6417775154 -0.025888014585
          0.72641813755 -18.872900009 -0.29902714491 -1.7149406672 -12.892407417 -0.23849634826
          9.2525434494 -21.375862122 0.49840065837 -0.13286004961 -7.8586292267 2.7348050935e-06
          4.2478260994 -21.127759933 2.103611223e-06 -0.075342752039 -3.6545608044 -0.041672188789
          0.7244707942 -18.856906891 2.9418920349e-06 15.487251282 -24.553468704 -0.59640729427
          0 0 0 -1.6634993553 -12.869799614 4.1583416532e-06
          15.486962318 -24.589870453 -0.29712504148 0 0 0
          -0.63587242365 -16.795858383 0.34517359734 12.7810812 -24.267953873 -0.5455250144
          -1.0185263157 -10.028634071 -0.020673500374 1.9938898087 -18.692106247 0.56275886297
          0.016258623451 -1.7650188208 0.019594861194 -1.7881518602 -14.75962925 0.41212812066
          12.78161335 -24.304853439 -0.27145120502 0.026958575472 -1.7653194666 0.0069416849874
          6.6869802475 -21.21191597 0.4458797574 15.488527298 -24.601472855 3.9910696614e-07
          -0.13337209821 -7.8293795586 -0.030514677987 10.063982964 -24.018196106 -0.4910197258
          0.090565703809 -3.5677483082 0.034876450896 4.2655391693 -21.131383896 0.2239883393
          0 0 0 2.5573303699 -21.266002655 -0.54809039831
          -0.1698077172 -10.210233688 0.066151097417 -0.10654523224 -5.6266183853 -0.049534838647
          0.10469731688 -3.5749979019 0.015143794008 10.066904068 -24.051971436 -0.24284391105
          12.782669067 -24.315868378 8.0760116816e-07 0.72641819715 -18.872901917 0.29903298616
          -0.16777186096 -10.311972618 0.03590509668 2.5725479126 -21.222833633 -0.25989246368
          -1.7149420977 -12.892407417 0.23850473762 0.02931939438 -1.7687095404 5.1839964499e-07
          -1.3269177675 -17.453647614 -0.82800662518 10.068395615 -24.060382843 1.2281496993e-06
          -0.64665842056 -16.843925476 0.71607756615 0.11068173498 -3.5806469917 1.1729244989e-06
          -0.16979955137 -10.350048065 3.3684184473e-06 -1.3266205788 -17.375789642 -0.39143922925
          2.5783691406 -21.212867737 2.5316780921e-06 -1.7959989309 -14.827124596 0.85345381498
          15.486962318 -24.589870453 0.29712581635 7.3330430984 -23.829195023 -0.43803459406
          -2.1168341637 -15.56765461 -1.0652936697 0 0 0
          0.22133603692 -5.5029406548 0.04644491151 -0.26868072152 -19.338335037 -0.67990076542
          0.23998226225 -5.5199751854 0.018858142197 7.3348155022 -23.848056793 -0.22006642818
          12.78161335 -24.304853439 0.27145281434 -2.0968134403 -15.452011108 -0.50021910667
          -0.2766700089 -19.276447296 -0.32569426298 0.026958711445 -1.7653193474 -0.0069406647235
          -0.13759854436 -7.795981884 -0.058999873698 4.2704281807 -21.147731781 0.44470116496
          -1.3465675116 -17.351060867 3.6975577586e-06 -1.5542039871 -12.706583977 0.23698203266
          0.71553820372 -18.917924881 0.61487197876 7.3336524963 -23.851779938 1.6479829128e-06
          10.066904068 -24.051971436 0.24284635484 -2.1030642986 -15.421530724 4.1187477109e-06
          0.10469757766 -3.5749976635 -0.015141453594 0.25179746747 -5.5332632065 1.8569184022e-06
          -0.16777198017 -10.311972618 -0.03589849174 2.5725483894 -21.222833633 0.25989753008
          -0.30116644502 -19.247549057 3.2854788969e-06 1.1953953505 -21.433900833 -0.59193152189
          -0.18752261996 -12.743740082 0.08998015523 1.1901949644 -21.378484726 -0.2871209085
          -0.20314060152 -12.919026375 0.034644670784 15.487251282 -24.553470612 0.59640806913
          0 0 0 -1.3266209364 -17.375789642 0.39144662023
          0.40492287278 -7.6146659851 0.047760367393 4.7703151703 -23.729488373 -0.42945894599
          0.44787293673 -7.6627287865 0.02502184175 12.7810812 -24.26795578 0.54552656412
          0.016259364784 -1.7650185823 -0.019593726844 4.7676200867 -23.721755981 -0.21739445627
          7.3348155022 -23.848058701 0.22006972134 -2.0968139172 -15.452012062 0.50022745132
          0.23998251557 -5.5199747086 -0.018854482099 -0.27667018771 -19.276447296 0.32570081949
          1.1738129854 -21.347717285 2.898872026e-06 -0.20483493805 -12.985107422 3.7994598188e-06
          10.063982964 -24.018198013 0.49102213979 0.090566746891 -3.5677478313 -0.034874144942
          2.5573308468 -21.266004562 0.54809528589 0.46755492687 -7.6830830574 2.4649496027e-06
          -0.16980738938 -10.210233688 -0.066144943237 4.7570295334 -23.721765518 2.0849809061e-06
          16.491222382 -27.285396576 -0.60498601198 0 0 0
          -1.3269184828 -17.453649521 0.82801389694 1.1901949644 -21.378484726 0.28712666035
          0 0 0 13.697654724 -26.997030258 -0.5496340394
          -1.5736120939 -18.274168015 -1.0271930695 -0.20314094424 -12.919026375 -0.034637223929
          0.063291743398 -1.6458318233 0.012486296706 -0.93356496096 -19.964904785 -0.78948372602
          16.48767662 -27.325748444 -0.30168697238 7.3330426216 -23.82919693 0.43803787231
          13.694605827 -27.037212372 -0.27389222383 0.078111790121 -1.6530828476 0.0028661042452
          -2.1168353558 -15.567656517 1.0653020144 -1.5288996696 -18.172065735 -0.46771389246
          0.2213370353 -5.5029401779 -0.046441398561 3.1308298111 -23.820451736 -0.53025358915
          0.44787305593 -7.6627283096 -0.025016978383 -0.26868116856 -19.338335037 0.67990720272
          0.7286260128 -9.9420671463 0.10796041042 4.7676200867 -23.721757889 0.21739862859
          -0.94518619776 -19.872728348 -0.36975070834 0.814234972 -10.020978928 0.065900199115
          3.1390936375 -23.774980545 -0.24982279539 10.878017426 -26.742523193 -0.49329936504
          16.487943649 -27.338724136 3.8324995444e-07 0.23118582368 -3.345543623 0.041107878089
          0 0 0 10.87739563 -26.779359818 -0.24511656165
          0.25488722324 -3.3625774384 0.014438794926 13.69442749 -27.049713135 7.8652379898e-07
          0.11267901957 -21.751358032 -0.64863163233 -1.5656694174 -18.113763809 3.7992958823e-06
          -0.99211734533 -19.824487686 3.4907416193e-06 -0.27752953768 -16.422405243 -0.011589345522
          0.082082912326 -1.6584849358 4.9781436928e-07 0.087564229965 -21.675172806 -0.31224775314
          3.1379096508 -23.759628296 2.5244150947e-06 -0.28431388736 -16.805549622 -0.0092774350196
          0.83789253235 -10.06717205 2.9049576824e-06 1.1953952312 -21.43390274 0.59193718433
          10.87814045 -26.790044785 1.2050478517e-06 -0.18752299249 -12.743739128 -0.089973203838
          0.26559251547 -3.3715806007 1.0837063655e-06 8.0265750885 -26.529441833 -0.44287398458
          16.48767662 -27.325748444 0.30168771744 0.042462516576 -21.625761032 3.1650824894e-06
          0.48187443614 -5.1793756485 0.056306738406 0.40492358804 -7.6146650314 -0.047755781561
          -0.28445079923 -16.619974136 4.0793911467e-06 4.7703151703 -23.72949028 0.42946311831
          0 0 0 8.0291843414 -26.555614471 -0.22040893137
          0.52378547192 -5.2156462669 0.027317525819 13.694605827 -27.037214279 0.27389377356
          -1.5289001465 -18.172065735 0.46772158146 -0.94518655539 -19.872730255 0.36975771189
          0.078111879528 -1.6530826092 -0.0028651342727 3.1390938759 -23.774980545 0.24982781708
          0.8142350316 -10.020978928 -0.065894477069 10.877394676 -26.779361725 0.24511894584
          8.031829834 -26.56293869 1.6327869616e-06 1.7343978882 -23.925382614 -0.57471400499
          1.2099975348 -12.540213585 0.32223418355 0.54077935219 -5.2270383835 1.6587932805e-06
          0.25488740206 -3.3625771999 -0.014436643571 1.3749171495 -12.722459793 0.2808124423
          0.087564066052 -21.675174713 0.31225404143 1.717787981 -23.864847183 -0.27810168266
          -0.28431430459 -16.805551529 0.0092852637172 5.332221508 -26.384134293 -0.42374774814
          16.491222382 -27.285396576 0.60498672724 0 0 0