<?xml version="1.0"?>
<VTKFile type="UnstructuredGrid" version="0.1" byte_order="LittleEndian" header_type="UInt32" compressor="vtkZLibDataCompressor">
  <UnstructuredGrid>
    <Piece NumberOfPoints="6405" NumberOfCells="4800">
      <PointData>
        <DataArray type="Float32" Name="DISPLACEMENT" NumberOfComponents="3" ComponentName0="X-DISPLACEMENT" ComponentName1="Y-DISPLACEMENT" ComponentName2="Z-DISPLACEMENT" format="ascii" RangeMin="0" RangeMax="300.11359813">
          0 0 0 0 0 0
          2.3538098335 -1.441372633 -1.0780491829 0 0 0
          1.4476256371 -0.84993332624 -0.78943926096 0 0 0
          2.1585509777 -1.610170722 -0.42538067698 1.2596797943 -0.99054682255 -0.3212133646
          0 0 0 4.219751358 -2.7872204781 -1.0921789408
          0 0 0 4.1659436226 -2.9786233902 -0.56145054102
          2.9010055065 -2.3345482349 -0.87833571434 0 0 0
          0 0 0 2.1680481434 -1.6619454622 -8.8118689234e-08
          0.9534984827 -0.56541669369 -0.54166853428 1.2546155453 -1.0141456127 4.5298849116e-09
          2.8404495716 -2.4879171848 -0.44700878859 0.81214332581 -0.69301462173 -0.22047615051
          4.120660305 -3.0313932896 2.3468622601e-09 1.9180622101 -2.0012764931 -0.6540145874
          0 0 0 2.8034303188 -2.5360758305 1.5223912442e-07
          1.8435733318 -2.1342208385 -0.33601740003 0 0 0
          5.8720288277 -4.5419363976 -1.0080311298 0 0 0
          0.80579477549 -0.70873582363 5.9739939218e-08 0 0 0
          0 0 0 2.1585512161 -1.6101709604 0.42538055778
          4.2453808784 -4.1178078651 -0.83808326721 5.8954253197 -4.6773762703 -0.51362210512
          0.3035056591 -0.38920164108 -0.27266591787 1.2596800327 -0.99054706097 0.32121342421
          4.2636399269 -4.2442584038 -0.42681568861 0.17211085558 -0.52555906773 -0.13402496278
          1.8129050732 -2.1737904549 2.6500813988e-07 4.1659440994 -2.9786236286 0.56145054102
          0 0 0 0 0 0
          0.84457242489 -1.8092600107 -0.49339359999 2.9040396214 -3.8085505962 -0.67930352688
          5.8808174133 -4.7257447243 2.1796101635e-07 2.8404500484 -2.4879174232 0.44700914621
          2.8956823349 -3.9249901772 -0.34592887759 0.81214356422 -0.69301474094 0.22047631443
          4.2545881271 -4.2864766121 4.1672578277e-07 0.76688414812 -1.9170122147 -0.24579568207
          0.15654306114 -0.54000979662 9.8341764954e-08 0 0 0
          7.3700780869 -6.5157799721 -0.88423448801 0 0 0
          5.5158896446 -6.1250209808 -0.76341760159 1.8435738087 -2.134221077 0.33601796627
          7.4178276062 -6.6100811958 -0.44789123535 2.3538103104 -1.4413731098 1.0780491829
          0 0 0 0 0 0
          0.74305045605 -1.9553183317 3.5693940958e-07 2.8850617409 -3.9644823074 5.8442742557e-07
          0.051082894206 -0.60345363617 -0.31291145086 5.5577831268 -6.2189421654 -0.38565245271
          1.4476261139 -0.84993368387 0.78943938017 1.6713098288 -3.5856397152 -0.53761219978
          0 0 0 5.8954262733 -4.6773767471 0.51362258196
          0.0015625201631 -0.66213238239 -0.13373462856 1.6521289349 -3.6987974644 -0.26391848922
          4.2636404037 -4.2442588806 0.42681655288 0.172111094 -0.52555912733 0.1340252161
          3.9278411865 -5.7964787483 -0.64158499241 0.26456281543 -1.8753207922 -0.36146759987
          7.4187393188 -6.6431083679 5.4437987274e-07 4.2197523117 -2.7872211933 1.09217906
          0 0 0 0 0 0
          3.9445157051 -5.8926692009 -0.32410106063 2.9010062218 -2.3345487118 0.87833619118
          5.5640425682 -6.251581192 7.7606955529e-07 0.27795141935 -1.9879281521 -0.16928437352
          0.95349901915 -0.56541699171 0.5416688323 0.016062581912 -0.72443771362 9.8951922212e-08
          1.6331623793 -3.7304832935 7.6253792258e-07 2.8956830502 -3.9249904156 0.34593006968
          0.76688480377 -1.9170124531 0.24579645693 3.9439907074 -5.9242253304 9.8231714674e-07
          1.9180631638 -2.0012769699 0.65401530266 0.26721656322 -2.0292258263 5.1531441159e-07
          2.4854433537 -5.5307970047 -0.49906146526 7.4178285599 -6.6100816727 0.44789233804
          5.8720297813 -4.5419373512 1.0080317259 0 0 0
          8.71571064 -8.6467542648 -0.77847218513 0 0 0
          0 0 0 0.54024845362 -3.4834005833 -0.28696936369
          2.4787569046 -5.6362690926 -0.25298246741 8.7622785568 -8.7096033096 -0.39157536626
          6.7053956985 -8.2891454697 -0.69614684582 5.5577836037 -6.2189426422 0.38565403223
          -0.60118097067 -0.75570708513 -0.22291341424 0 0 0
          4.245382309 -4.117808342 0.83808416128 0.30350619555 -0.38920179009 0.27266633511
          0.53305178881 -3.6203985214 -0.16353821754 0.001563070924 -0.662132442 0.13373489678
          -0.61833167076 -0.81863349676 -0.11297293752 1.6521298885 -3.6987979412 0.26392000914
          6.7461614609 -8.3554878235 -0.34881517291 3.9445166588 -5.8926696777 0.32410305738
          2.4737644196 -5.6655058861 1.1876302324e-06 8.769153595 -8.7322034836 9.7117344922e-07
          -0.46094924212 -2.0963389874 -0.26142933965 0.27795216441 -1.9879283905 0.1692854166
          0 0 0 4.9366254807 -7.9867091179 -0.60843664408
          0.84457367659 -1.8092604876 0.49339458346 2.9040410519 -3.8085513115 0.67930483818
          0.52269792557 -3.6450827122 9.7986594483e-07 6.7564468384 -8.3785829544 1.2204328641e-06
          -0.62077701092 -0.84966260195 1.3788441322e-07 -0.50635510683 -2.1813235283 -0.10600873828
          4.9534659386 -8.0550460815 -0.30410906672 7.3700795174 -6.5157809258 0.8842356801
          0 0 0 0.84575372934 -5.3535676003 -0.31417834759
          5.515891552 -6.1250219345 0.76341927052 -0.49704000354 -2.2176568508 5.262374998e-07
          0.82606649399 -5.4734296799 -0.17380599678 4.958158493 -8.0768404007 1.4359412717e-06
          0.051084000617 -0.60345381498 0.3129119575 2.4787578583 -5.6362695694 0.2529848516
          3.2694351673 -7.758140564 -0.50904762745 8.7622795105 -8.7096042633 0.39157733321
          -0.23610265553 -3.7786200047 -0.33886829019 1.6713114977 -3.585640192 0.53761380911
          0 0 0 0.53305244446 -3.6203987598 0.16354012489
          3.2537887096 -7.8225016594 -0.25662267208 -0.6183308959 -0.81863361597 0.11297328025
          -0.31984719634 -3.8073682785 -0.12766222656 6.7461624146 -8.3554887772 0.3488176465
          3.9278428555 -5.7964792252 0.64158707857 0.26456427574 -1.8753211498 0.36146864295
          9.9217176437 -10.875054359 -0.69719201326 0 0 0
          0.83415305614 -5.5054512024 1.3521206483e-06 7.8018336296 -10.555620193 -0.64418870211
          9.9593143463 -10.916404724 -0.34985253215 0 0 0
          -0.025934197009 -1.1152459383 -0.059388428926 7.8350715637 -10.600166321 -0.32141828537
          3.2526905537 -7.8421573639 1.6260061102e-06 -0.070686928928 -1.1727513075 -0.027494706213
          -0.50635421276 -2.1813237667 0.10600980371 -0.29235547781 -3.8600516319 9.1417973636e-07
          4.9534668922 -8.0550460815 0.30411195755 5.8756809235 -10.301538467 -0.5890981555
          -0.21194820106 -2.3838963509 -0.15295156837 9.9670228958 -10.931733131 1.4900175529e-06
          0 0 0 -0.25483742356 -2.4482917786 -0.069401331246
          5.8918843269 -10.34455204 -0.29292029142 7.8448438644 -10.616147041 1.7462044752e-06
          -0.073487244546 -1.1872543097 1.9549069918e-07 2.4854450226 -5.5307974815 0.49906387925
          1.3756546974 -7.5758895874 -0.43514421582 8.7157115936 -8.6467552185 0.77847421169
          0 0 0 0.059529457241 -5.6392493248 -0.49165862799
          0.82606714964 -5.4734296799 0.17380873859 0.54024994373 -3.4834010601 0.28697121143
          6.7053976059 -8.2891464233 0.69614934921 -0.60117942095 -0.75570732355 0.22291384637
          0.0011288183741 -5.6138696671 -0.18779696524 1.3389478922 -7.6318740845 -0.21395815909
          3.2537896633 -7.8225021362 0.25662598014 -0.31984621286 -3.8073687553 0.12766411901
          5.8975076675 -10.359254837 1.9690987756e-06 -0.27189916372 -2.4674532413 6.0384820699e-07
          4.0467915535 -10.138624191 -0.53960233927 -0.32394906878 -4.0034213066 -0.17830190063
          -0.46094745398 -2.0963394642 0.26143053174 9.9593153 -10.916405678 0.34985554218
          4.9366278648 -7.9867100716 0.60843962431 0 0 0
          1.3410269022 -7.6518154144 1.8139635358e-06 0.023237777874 -5.665096283 1.3261451386e-06
          4.0414686203 -10.168006897 -0.27025398612 7.8350725174 -10.600166321 0.32142180204
          -0.38868430257 -4.0783076286 -0.13327944279 -0.070686668158 -1.1727513075 0.027495127171
          0.84575527906 -5.3535680771 0.31418117881 4.0424251556 -10.181474686 2.1796759029e-06
          5.8918852806 -10.34455204 0.29292425513 -0.25483679771 -2.448292017 0.069402582943
          -0.3801715374 -4.0823745728 1.0882855577e-06 11.014447212 -13.148889542 -0.64102381468
          0 0 0 11.042022705 -13.178474426 -0.32147935033
          3.2694373131 -7.7581415176 0.50905108452 8.8135280609 -12.856862068 -0.60391479731
          -0.23610056937 -3.7786204815 0.33887040615 0.51674389839 -7.7775988579 -0.56793302298
          -0.028135312721 -1.2860723734 -0.027410270646 0.0011301336344 -5.6138701439 0.18779979646
          1.3389490843 -7.6318745613 0.21396189928 0 0 0
          8.8393793106 -12.889204979 -0.3008275032 0.52836877108 -7.7580428123 -0.24371698499
          -0.049802705646 -1.3161939383 -0.0078884074464 2.1848356724 -9.9901561737 -0.55180865526
          -0.5802128315 -6.038441658 -0.60338944197 9.9217195511 -10.875055313 0.6971950531
          0 0 0 7.801835537 -10.555622101 0.64419221878
          11.04929924 -13.189746857 2.087260782e-06 -0.56963825226 -5.9653558731 -0.28060016036
          2.1580247879 -9.9996547699 -0.25797709823 -0.025933498517 -1.1152460575 0.059389099479
          6.7493834496 -12.630235672 -0.56460058689 -0.12618029118 -2.6858253479 -0.071943439543
          0 0 0 4.0414700508 -10.168007851 0.27025839686
          -0.38868349791 -4.0783081055 0.13328163326 8.8472909927 -12.900857925 2.3384664019e-06
          0.53802037239 -7.7884325981 1.9656990844e-06 6.7686362267 -12.660068512 -0.28087887168
          -0.16025425494 -2.73630023 -0.033812135458 -0.05485759303 -1.3291298151 2.5631763378e-07
          5.8756828308 -10.301539421 0.58910220861 -0.21194684505 -2.3838965893 0.15295290947
          2.1413156986 -10.00649929 2.4224611934e-06 -0.53457689285 -5.9705729485 1.4531125316e-06
          1.3756570816 -7.5758910179 0.43514826894 6.7736468315 -12.670478821 2.5705542157e-06
          -0.16721765697 -2.7524783611 7.1013835168e-07 0.059531997889 -5.6392498016 0.49166181684
          11.042024612 -13.178474426 0.32148355246 4.7965126038 -12.488842964 -0.53475767374
          0 0 0 -0.287042588 -4.3264322281 -0.1354021281
          4.8095059395 -12.509600639 -0.26604780555 8.8393802643 -12.889204979 0.30083218217
          -0.049802467227 -1.3161939383 0.0078889569268 0.5283703804 -7.758043766 0.24372108281
          -0.31524184346 -4.3873081207 -0.06794718653 4.0467939377 -10.138625145 0.53960686922
          0.98586750031 -10.000422478 -0.48716208339 2.1580266953 -9.9996547699 0.25798201561
          -0.32394734025 -4.0034217834 0.1783041954 -0.56963711977 -5.9653563499 0.28060331941
          -0.25002488494 -8.1397123337 -0.58996164799 1.0211240053 -10.037399292 -0.24954529107
          4.8103427887 -12.518263817 2.8039034987e-06 6.7686376572 -12.660069466 0.28088402748
          -0.1602537483 -2.73630023 0.033813592046 -0.22517603636 -8.1183834076 -0.27714428306
          -0.32512328029 -4.405395031 1.2577543202e-06 12.037118912 -15.438567162 -0.60927838087
          0 0 0 -0.034535035491 -1.3844835758 -0.0022338579874
          1.0298342705 -10.047071457 2.7629851047e-06 3.0357952118 -12.379673004 -0.52378040552
          9.7681560516 -15.157139778 -0.57339906693 11.01444912 -13.148890495 0.641027987
          0 0 0 0 0 0
          -0.20738393068 -8.1145009995 2.2297547275e-06 -0.37484592199 -6.1688165665 -0.15253515542
          12.054991722 -15.466216087 -0.30507424474 3.031085968 -12.392427444 -0.25542250276
          9.7866687775 -15.187437057 -0.285248667 8.8135309219 -12.856863022 0.60391950607
          -0.042972803116 -1.4060804844 0.0004452112189 0.51674681902 -7.7775998116 0.56793725491
          -0.028134588152 -1.2860724926 0.027411010116 -0.41316255927 -6.2675390244 -0.10846056789
          4.80950737 -12.509601593 0.26605343819 -0.31524112821 -4.3873081207 0.067949712276
          7.5786890984 -14.934462547 -0.53192037344 2.1848387718 -9.9901571274 0.55181384087
          -0.5802103281 -6.0384421349 0.60339272022 0 0 0
          -0.1195686534 -2.8777925968 -0.021347707137 12.061419487 -15.476364136 2.7371102078e-06
          -0.045098088682 -1.4141161442 3.1420483992e-07 3.0084965229 -12.391701698 3.0992462143e-06
          7.59826231 -14.962490082 -0.26390200853 6.7493858337 -12.630236626 0.5646057725
          9.7925519943 -15.197600365 2.9708239708e-06 -0.12617905438 -2.6858255863 0.071944996715
          -0.42928537726 -6.2642397881 1.9167976006e-06 -0.13190847635 -2.9146499634 -0.0079917758703
          1.021125555 -10.037400246 0.2495508045 -0.22517487407 -8.1183843613 0.27714881301
          0.10987278819 -10.363648415 -0.56296050549 7.6022825241 -14.970175743 3.1991980904e-06
          -0.13633170724 -2.9280171394 8.1377510242e-07 0.10774233937 -10.344987869 -0.25266727805
          5.5124998093 -14.797763824 -0.49372521043 0 0 0
          -0.23238602281 -4.5373921394 -0.030962869525 12.054992676 -15.466216087 0.30507972836
          -0.042972587049 -1.4060804844 -0.00044456141768 3.0310878754 -12.392427444 0.25542870164
          5.5294241905 -14.817058563 -0.24214415252 4.7965149879 -12.488843918 0.53476339579
          9.7866697311 -15.187438011 0.28525459766 1.4235247374 -12.302739143 -0.44427675009
          -0.53261142969 -8.2089071274 -0.16495271027 -0.28704094887 -4.3264327049 0.1354046762
          -0.24701672792 -4.5933012962 -0.015077493154 -0.41316178441 -6.2675395012 0.10846431553
          1.4348527193 -12.32862854 -0.23644919693 -0.60006940365 -8.3286771774 -0.15469624102
          0.14023791254 -10.369375229 2.9180575893e-06 0.98587036133 -10.000423431 0.48716750741
          7.5982632637 -14.962491035 0.26390841603 -0.25002238154 -8.1397132874 0.58996611834
          5.5264430046 -14.819644928 3.4430170217e-06 -0.13190801442 -2.9146499634 0.0079934354872
          -0.25344178081 -4.6109910011 1.4211988173e-06 1.4445590973 -12.329510689 3.4218244309e-06
          -0.57908397913 -8.3140821457 2.562986765e-06 -0.38157302141 -6.3983974457 -0.031723588705
          3.6786746979 -14.757478714 -0.45885545015 12.037121773 -15.438568115 0.6092838645
          0 0 0 0.10774350911 -10.344988823 0.25267314911
          -0.034534301609 -1.3844835758 0.0022346868645 -0.40017360449 -6.4765586853 -0.013991209678
          3.0357985497 -12.379673958 0.5237866044 9.7681589127 -15.157140732 0.57340502739
          3.6813287735 -14.761198997 -0.2296025753 13.033533096 -17.750707626 -0.59827560186
          0 0 0 -0.37484413385 -6.1688170433 0.1525388211
          13.042567253 -17.783275604 -0.29868346453 -0.043767947704 -1.4372535944 0.019093846902
          10.693921089 -17.468660355 -0.55354076624 5.529425621 -14.817058563 0.24215103686
          0 0 0 -0.24701611698 -4.5933012962 0.015080327168
          10.704506874 -17.503433228 -0.27525660396 -0.040691308677 -1.4545127153 0.0085657797754
          1.4348541498 -12.328629494 0.23645602167 -0.60006868839 -8.3286771774 0.15470135212
          7.5786914825 -14.934463501 0.53192681074 -0.40788590908 -6.5006427765 2.0752061118e-06
          3.665630579 -14.759930611 3.7006718685e-06 -0.11956743151 -2.8777925968 0.021349443123
          0.46814802289 -12.63742733 -0.58212924004 -0.10373594612 -2.9744939804 0.020089006051
          8.3824672699 -17.234970093 -0.50203961134 -0.81205844879 -10.738663673 -0.61341691017
          13.047498703 -17.794307709 3.4083968785e-06 0 0 0
          0.48135372996 -12.602794647 -0.25254356861 10.708339691 -17.514234543 3.6151584482e-06
          -0.041257310659 -1.4606039524 3.6415397631e-07 8.3975439072 -17.267288208 -0.24752016366
          -0.10375137627 -3.0032553673 0.011638499796 -0.79873293638 -10.696731567 -0.30799657106
          0.10987522453 -10.363649368 0.56296646595 0.49736851454 -12.625421524 3.4785957723e-06
          -0.56381219625 -8.5105876923 -0.060243286192 -0.40017294884 -6.4765586853 0.013995330781
          1.9520440102 -14.748335838 -0.48153534532 8.4010858536 -17.27400589 3.8251196202e-06
          5.5125021935 -14.797764778 0.49373206496 3.6813304424 -14.761198997 0.22960996628
          -0.79213774204 -10.69244194 3.1819940887e-06 -0.10392984003 -3.0140247345 9.0061172386e-07
          -0.23238451779 -4.5373921394 0.030965695158 13.042568207 -17.783275604 0.29869025946
          6.1618685722 -17.100214005 -0.44556057453 -0.5909332633 -8.5968122482 -0.021908858791
          -0.18492007256 -4.6680107117 0.023266796023 1.9507007599 -14.738996506 -0.22958789766
          1.4235274792 -12.302741051 0.44428351521 -0.53260964155 -8.2089080811 0.16495774686
          0 0 0 -0.18507942557 -4.7077178955 0.014308054
          10.704507828 -17.503433228 0.27526384592 -0.040691107512 -1.4545125961 -0.0085650393739
          6.169482708 -17.115158081 -0.21848468482 -0.61658841372 -8.6275262833 2.7605317428e-06
          1.9485945702 -14.740046501 3.9012452362e-06 0.48135507107 -12.602795601 0.25255066156
          6.1612229347 -17.111764908 4.0401946535e-06 -0.18693269789 -4.7230496407 1.5230140207e-06
          8.3975448608 -17.267288208 0.24752780795 -0.10375096649 -3.0032553673 -0.011636678129
          -0.79873180389 -10.696732521 0.30800300837 -0.38157138228 -6.3983974457 0.031727615744
          3.6786773205 -14.757479668 0.45886278152 4.1580252647 -17.109954834 -0.42228811979
          13.033535004 -17.750707626 0.59828239679 0 0 0
          -0.28588783741 -6.5648741722 0.032312087715 -0.043767213821 -1.4372535944 -0.019092945382
          10.693922997 -17.468660355 0.5535479784 -0.59093254805 -8.5968122482 0.021914307028
          1.9507023096 -14.738997459 0.22959573567 4.1440591812 -17.090475082 -0.21117822826
          -0.46536612511 -13.007328987 -0.61107969284 -0.28663024306 -6.612745285 0.020638596267
          -0.18507888913 -4.7077178955 -0.014305020683 6.1694836617 -17.115159988 0.21849277616
          -0.435131073 -12.976516724 -0.29947885871 0.86801356077 -14.968265533 -0.53611958027
          -0.74801939726 -10.753523827 -0.010454043746 14.032492638 -20.115816116 -0.60086286068
          0 0 0 11.60922718 -19.829444885 -0.54569762945
          0.46815052629 -12.637428284 0.58213639259 -0.10373476893 -2.9744939804 -0.020087134093
          8.3824691772 -17.234970093 0.50204730034 -0.8487021327 -10.894081116 -0.10029298812
          0.88060235977 -14.948765755 -0.24959973991 -0.81205624342 -10.738664627 0.61342340708
          14.034445763 -20.155406952 -0.29941684008 0 0 0
          -0.29215344787 -6.6349263191 2.1709925022e-06 4.1153445244 -17.076417923 4.2630763346e-06
          -0.047308396548 -1.4445704222 0.038894917816 11.612519264 -19.870349884 -0.27143257856
          -0.035647593439 -1.4601265192 0.016220750287 -0.43818548322 -12.965285301 3.7349068407e-06
          9.1812801361 -19.583665848 -0.48474085331 -0.83685940504 -10.890295029 3.3974811231e-06
          0.87384134531 -14.951276779 4.1092616812e-06 14.037364006 -20.16824913 4.0729314605e-06
          0 0 0 -0.078950442374 -2.9876587391 0.051830127835
          9.188952446 -19.622026443 -0.23919861019 11.614510536 -19.882759094 4.2468132051e-06
          -0.56381046772 -8.5105876923 0.060248538852 1.952046752 -14.748336792 0.48154339194
          -0.034830488265 -1.4653413296 4.0770734699e-07 -0.070093356073 -3.0122635365 0.026635725051
          6.1618709564 -17.100215912 0.44556865096 -0.18491867185 -4.6680107117 -0.023263799027
          -0.40622207522 -8.6669778824 0.055570308119 2.5653090477 -17.190752029 -0.48921123147
          -0.28662967682 -6.612745285 -0.020634299144 4.1440606117 -17.09047699 0.21118675172
          -0.42107826471 -8.736333847 0.026762580499 2.5446634293 -17.152891159 -0.22831220925
          -0.43512994051 -12.976516724 0.2994864285 9.1917896271 -19.631023407 4.4310099838e-06
          -0.067020907998 -3.0214555264 9.6363442026e-07 6.7580275536 -19.415248871 -0.42132657766
          -0.84870147705 -10.894081116 0.10029973835 0.88060373068 -14.948766708 0.24960802495
          14.034446716 -20.155406952 0.29942497611 0 0 0
          -0.1027417928 -4.6866617203 0.060715023428 6.7602353096 -19.436332703 -0.21032385528
          11.612520218 -19.870349884 0.27144107223 -0.096122391522 -4.7175154686 0.031382635236
          -0.42779669166 -8.7609729767 2.8076201488e-06 2.5108950138 -17.131259918 4.4918501771e-06
          -0.035647429526 -1.4601264 -0.016219934449 9.1889533997 -19.622026443 0.23920746148
          6.7546525002 -19.437364578 4.6194736569e-06 -0.093790411949 -4.7305927277 1.577207172e-06
          4.1580281258 -17.109956741 0.42229673266 -0.092476673424 -15.313693047 -0.56759661436
          -0.070093005896 -3.012263298 -0.0266337879 -0.2858863771 -6.5648741722 -0.03230792284
          -1.3308794498 -13.392266273 -0.64374125004 -0.079527355731 -15.291704178 -0.26734229922
          -0.46536394954 -13.007329941 0.61108714342 -1.3083025217 -13.366776466 -0.313277632
          -0.42107772827 -8.7363328934 -0.026757042855 2.5446653366 -17.152893066 0.22832120955
          0.86801612377 -14.968266487 0.53612774611 -0.74801772833 -10.75352478 0.010460542515
          -0.1214113459 -6.5816187859 0.069533586502 4.5495686531 -19.377483368 -0.40459355712
          14.032495499 -20.115818024 0.60087096691 0 0 0
          11.609229088 -19.829444885 0.54570609331 -0.11507377774 -6.6189908981 0.035997822881
          -0.088298462331 -15.283754349 4.2883852984e-06 -0.58576488495 -10.999282837 0.019806724042
          1.2772963047 -17.291200638 -0.49004170299 4.533826828 -19.36489296 -0.20526683331
          -0.047307688743 -1.444570303 -0.038893964142 -1.2985775471 -13.354649544 3.9704618757e-06
          6.7602362633 -19.436332703 0.2103331089 -0.096121966839 -4.7175154686 -0.031379505992
          1.2658809423 -17.261432648 -0.24197685719 -0.61694723368 -11.080227852 0.021507449448
          9.1812820435 -19.583665848 0.4847496748 -0.11332363635 -6.6357655525 2.1780467705e-06
          4.5037283897 -19.356559753 4.8713295655e-06 -0.07894936204 -2.9876587391 -0.051828172058
          1.2394698858 -17.236211777 4.7330495363e-06 15.045012474 -22.564508438 -0.61003690958
          0 0 0 -0.63751375675 -11.128540993 3.4121196677e-06
          15.042423248 -22.610010147 -0.30403372645 0 0 0
          -0.079526282847 -15.291704178 0.26735091209 12.525393486 -22.274059296 -0.54746001959
          -0.40622070432 -8.6669778824 -0.05556499213 2.5653123856 -17.190752029 0.48922017217
          -0.049094270915 -1.4063514471 0.058487210423 -1.3083016872 -13.36677742 0.31328561902
          12.523672104 -22.319959641 -0.27266120911 -0.029359381646 -1.4222407341 0.024027533829
          6.7580299377 -19.415248871 0.42133581638 15.04348278 -22.624704361 4.7069665925e-06
          -0.11507338285 -6.6189904213 -0.03599352017 9.9805145264 -22.020610809 -0.48214709759
          -0.049338631332 -2.9141788483 0.082713983953 4.5338277817 -19.36489296 0.20527657866
          0 0 0 3.090628624 -19.493492126 -0.46594974399
          -0.13691040874 -8.6986579895 0.081074140966 -0.1027405858 -4.6866617203 -0.060711972415
          -0.032922498882 -2.9393441677 0.041396889836 9.9821557999 -22.064268112 -0.23920437694
          12.524161339 -22.334287643 4.8452357078e-06 1.2658822536 -17.261432648 0.24198627472
          -0.12983433902 -8.7410001755 0.042209055275 3.0741255283 -19.456258774 -0.22143268585
          -0.61694681644 -11.080226898 -0.021500730887 -0.027446385473 -1.4272787571 4.5077482014e-07
          -0.93499994278 -15.702145576 -0.61401236057 9.9837198257 -22.076936722 4.9997133829e-06
          -0.092474721372 -15.313694 0.56760513783 -0.026908937842 -2.9482345581 1.01261503e-06
          -0.1289934665 -8.7699918747 2.7320202207e-06 -0.92398434877 -15.67202282 -0.28654286265
          3.0413300991 -19.430782318 5.1292522585e-06 -1.3308777809 -13.392267227 0.64374923706
          15.042423248 -22.610010147 0.30404311419 7.4087042809 -21.815174103 -0.4207187295
          -0.76207566261 -13.456127167 0.061558164656 0 0 0
          -0.011999014765 -4.5790829659 0.095947116613 0.27891716361 -17.577337265 -0.53018110991
          2.4634825877e-06 -4.6123213768 0.047658260912 7.4126429558 -21.847675323 -0.20935800672
          12.523673058 -22.319961548 0.27267089486 -0.87696492672 -13.620920181 -0.080229155719
          0.26404857635 -17.546653748 -0.2451979816 -0.029359262437 -1.4222406149 -0.024026645347
          -0.12141020596 -6.581618309 -0.06952945143 4.5495705605 -19.377483368 0.40460324287
          -0.93299406767 -15.660999298 4.3168020056e-06 -0.58576369286 -10.999282837 -0.01980031468
          1.2772985697 -17.291200638 0.4900508821 7.4142346382 -21.855833054 5.1700094446e-06
          9.9821567535 -22.064268112 0.23921436071 -0.85992509127 -13.588199615 3.888838819e-06
          -0.032922256738 -2.9393439293 -0.041394870728 0.0057562105358 -4.6244874001 1.5908758542e-06
          -0.1298340559 -8.7409992218 -0.042203683406 3.0741271973 -19.456258774 0.22144289315
          0.23023828864 -17.528421402 4.7518283282e-06 1.7356894016 -19.583005905 -0.48343145847
          -0.14984719455 -11.002997398 0.098527394235 1.6975650787 -19.535390854 -0.23296290636
          -0.14404414594 -11.085539818 0.050935395062 15.045014381 -22.564508438 0.6100462079
          0 0 0 -0.9239833951 -15.67202282 0.28655162454
          0.059417851269 -6.4466104507 0.10210140049 4.9989552498 -21.703672409 -0.3919339776
          0.070503383875 -6.4844927788 0.048839528114 12.525396347 -22.274059296 0.54746961594
          -0.04909362644 -1.4063513279 -0.058486223221 4.9889712334 -21.703020096 -0.19576561451
          7.4126439095 -21.847675323 0.20936833322 -0.87696456909 -13.620920181 0.080236956477
          2.7174316983e-06 -4.6123209 -0.047655120492 0.26404967904 -17.546653748 0.24520750344
          1.6430616379 -19.489599228 5.2030095503e-06 -0.14420586824 -11.109519958 3.2038844893e-06
          9.9805164337 -22.020610809 0.48215702176 -0.049337714911 -2.9141786098 -0.082711987197
          3.090631485 -19.493494034 0.46595966816 0.078850105405 -6.5024194717 2.1110288344e-06
          -0.13690949976 -8.6986570358 -0.081069014966 4.9645371437 -21.700048447 5.4059278227e-06
          16.07308197 -25.115253448 -0.62105470896 0 0 0
          -0.93499845266 -15.702145576 0.61402106285 1.69756639 -19.535390854 0.23297323287
          0 0 0 13.447699547 -24.820936203 -0.5538020134
          -1.5238951445 -16.189054489 -0.7269474268 -0.14404401183 -11.085538864 -0.05092907697
          -0.052836928517 -1.320270896 0.080059751868 -0.54044979811 -17.96689415 -0.584433496
          16.068471909 -25.164896011 -0.30990275741 7.4087061882 -21.815174103 0.4207290411
          13.443671227 -24.870445251 -0.27648365498 -0.023804159835 -1.3382385969 0.032680504024
          -0.76207488775 -13.456127167 -0.061550699174 -1.5095119476 -16.123800278 -0.33009886742
          -0.011998111382 -4.5790820122 -0.095944099128 3.5847430229 -21.778776169 -0.44795313478
          0.070503532887 -6.4844923019 -0.04883537814 0.27891901135 -17.577339172 0.53019052744
          0.16477452219 -8.5202703476 0.097819142044 4.9889726639 -21.703022003 0.19577641785
          -0.55000936985 -17.925430298 -0.26526904106 0.18910373747 -8.5735759735 0.052147142589
          3.5649349689 -21.737133026 -0.21188867092 10.792114258 -24.558778763 -0.48677024245
          16.068336487 -25.181089401 5.2882783166e-06 -0.021892607212 -2.7557542324 0.12008971721
          0 0 0 10.791158676 -24.607257843 -0.24242317677
          0.0030676659662 -2.7841966152 0.059273537248 13.443157196 -24.886528015 5.3889502851e-06
          0.64608901739 -19.785718918 -0.50374805927 -1.4972041845 -16.111253738 4.1391849663e-06
          -0.58468443155 -17.903299332 4.5920273806e-06 -0.16636438668 -13.499771118 0.1190436855
          -0.021173944697 -1.3439395428 5.0346346825e-07 0.60162132978 -19.735294342 -0.23956084251
          3.529250145 -21.706394196 5.6917547226e-06 -0.17006541789 -13.591688156 0.059101510793
          0.19824789464 -8.5939302444 2.5364145131e-06 1.7356916666 -19.583005905 0.48344162107
          10.792001724 -24.622566223 5.5133500609e-06 -0.14984659851 -11.002996445 -0.098521433771
          0.011608638801 -2.7929189205 1.0576455907e-06 8.1054010391 -24.328041077 -0.41970741749
          16.068473816 -25.164896011 0.30991330743 0.53174614906 -19.684862137 5.1223551054e-06
          0.05745427683 -4.3581895828 0.14156734943 0.059418525547 -6.4466094971 -0.10209745914
          -0.17579692602 -13.690638542 3.5472255604e-06 4.9989571571 -21.703674316 0.39194467664
          0 0 0 8.1109933853 -24.372068405 -0.2089831233
          0.07788413763 -4.3969693184 0.071777671576 13.44367218 -24.870447159 0.27649441361
          -1.5095112324 -16.123802185 0.33010736108 -0.55000841618 -17.925430298 0.26527830958
          -0.023804107681 -1.3382383585 -0.032679531723 3.564936161 -21.737133026 0.2118999809
          0.18910367787 -8.5735750198 -0.052142158151 10.79115963 -24.607257843 0.24243418872
          8.1153459549 -24.385402679 5.6649478211e-06 2.2418065071 -21.834766388 -0.47978383303
          0.3409884572 -10.81278038 0.15113890171 0.087906271219 -4.409116745 1.5726024003e-06
          0.0030677539762 -2.7841961384 -0.059271447361 0.37985697389 -10.872160912 0.067384675145
          0.60162234306 -19.735294342 0.23957106471 2.1919946671 -21.778957367 -0.22895914316
          -0.17006529868 -13.591687202 -0.059094514698 5.5187072754 -24.146921158 -0.36447560787
          16.073083878 -25.115255356 0.62106513977 0 0 0