<?xml version="1.0"?>
<VTKFile type="UnstructuredGrid" version="0.1" byte_order="LittleEndian" header_type="UInt32" compressor="vtkZLibDataCompressor">
  <UnstructuredGrid>
    <Piece NumberOfPoints="6405" NumberOfCells="4800">
      <PointData>
        <DataArray type="Float32" Name="DISPLACEMENT" NumberOfComponents="3" ComponentName0="X-DISPLACEMENT" ComponentName1="Y-DISPLACEMENT" ComponentName2="Z-DISPLACEMENT" format="ascii" RangeMin="0" RangeMax="244.98737615">
          0 0 0 0 0 0
          1.9546775818 -1.1822067499 -0.90763479471 0 0 0
          1.2748098373 -0.68981724977 -0.70830142498 0 0 0
          1.7823734283 -1.3036706448 -0.36158099771 1.1083356142 -0.7905831933 -0.2889432013
          0 0 0 3.5155277252 -2.1489424706 -0.93692040443
          0 0 0 3.4629044533 -2.2940113544 -0.48384606838
          2.5624742508 -1.7510373592 -0.78386294842 0 0 0
          0 0 0 1.7883225679 -1.3456914425 1.9396227344e-06
          0.93804562092 -0.4565692842 -0.54885560274 1.1038556099 -0.81133645773 1.2190953385e-06
          2.5063474178 -1.8668763638 -0.40023556352 0.80569058657 -0.55083799362 -0.22272120416
          3.4238107204 -2.3351061344 4.9626928558e-06 1.8785116673 -1.4177078009 -0.61745977402
          0 0 0 2.4719314575 -1.9054129124 3.4795762076e-06
          1.8219447136 -1.5248141289 -0.31660962105 0 0 0
          4.9458250999 -3.3925151825 -0.88544565439 0 0 0
          0.79860603809 -0.56874662638 3.1217524565e-07 0 0 0
          0 0 0 1.7823741436 -1.3036698103 0.36158493161
          3.7780592442 -3.0071213245 -0.75189369917 4.9588608742 -3.4996583462 -0.45160183311
          0.65511840582 -0.2890445292 -0.37283277512 1.1083370447 -0.79058176279 0.28894579411
          3.7891492844 -3.1079084873 -0.38323521614 0.57609391212 -0.38980358839 -0.15421395004
          1.7927080393 -1.5535072088 1.6872762671e-06 3.462906599 -2.2940087318 0.48385626078
          0 0 0 0 0 0
          1.2971794605 -1.1985182762 -0.43958970904 2.8390312195 -2.6995687485 -0.62058186531
          4.9464321136 -3.5386357307 8.9995128292e-06 2.5063505173 -1.8668732643 0.40024277568
          2.8320839405 -2.795394659 -0.31513568759 0.80569201708 -0.55083614588 0.22272208333
          3.7803559303 -3.1416883469 6.6542802415e-06 1.2416614294 -1.3030014038 -0.22464485466
          0.59100729227 -0.40389183164 -9.1537395974e-07 0 0 0
          6.2856817245 -4.8106560707 -0.7991424799 0 0 0
          4.9355945587 -4.4547104836 -0.69622194767 1.8219480515 -1.5248104334 0.31661328673
          6.3203620911 -4.8909845352 -0.40437698364 1.9546810389 -1.182205081 0.90763944387
          0 0 0 0 0 0
          1.2235902548 -1.3292565346 -3.5983831026e-07 2.8227806091 -2.8251614571 3.9588067011e-06
          0.23377193511 -0.17921918631 -0.16954779625 4.9667487144 -4.5339684486 -0.35125541687
          1.2748138905 -0.68981432915 0.70830494165 1.9867511988 -2.4898533821 -0.48702514172
          0 0 0 4.9588646889 -3.4996540546 0.45162004232
          0.18435525894 -0.30214488506 -0.084509000182 1.9619692564 -2.5771391392 -0.24807529151
          3.7891542912 -3.1079037189 0.3832487464 0.57609605789 -0.38980129361 0.15421253443
          3.7821390629 -4.1643118858 -0.59488117695 0.50799334049 -1.064650774 -0.27721121907
          6.3214612007 -4.9190087318 1.390738089e-05 3.5155344009 -2.1489372253 0.93693125248
          0 0 0 0 0 0
          3.7963385582 -4.2418942451 -0.3000587225 2.5624818802 -1.7510310411 0.78387093544
          4.9714956284 -4.5614256859 1.0689342162e-05 0.45242932439 -1.1641218662 -0.14449805021
          0.93804883957 -0.4565653801 0.54885739088 0.21356765926 -0.33249762654 -2.5591816666e-06
          1.9526401758 -2.6053338051 9.4360569847e-07 2.8320889473 -2.7953894138 0.31514385343
          1.2416651249 -1.3029972315 0.22464436293 3.797349453 -4.2682309151 7.071372238e-06
          1.8785184622 -1.4177004099 0.61746418476 0.44640529156 -1.1943688393 -2.6013228762e-06
          2.7138223648 -3.9516501427 -0.49720060825 6.3203673363 -4.8909783363 0.40440499783
          4.9458346367 -3.392506361 0.88546454906 0 0 0
          7.5227813721 -6.3710532188 -0.72407454252 0 0 0
          0 0 0 1.0143839121 -2.3426468372 -0.39474496245
          2.713609457 -4.0261130333 -0.25129532814 7.5584545135 -6.4314436913 -0.36371055245
          6.0268259048 -6.0388011932 -0.64467316866 4.9667544365 -4.5339622498 0.35127696395
          0.066807463765 -0.32926234603 -0.18290646374 0 0 0
          3.7780702114 -3.0071115494 0.75190788507 0.65512138605 -0.28903982043 0.37283238769
          0.9816454649 -2.4166767597 -0.19166737795 0.18435907364 -0.30214214325 0.084504544735
          0.0017010621959 -0.38046637177 -0.067113779485 1.9619745016 -2.5771334171 0.24807742238
          6.0593190193 -6.1009397507 -0.32309368253 3.7963449955 -4.2418875694 0.30007308722
          2.7112970352 -4.0528640747 3.1135837162e-06 7.5647325516 -6.4526467323 1.9650478862e-05
          0.23071762919 -1.221971035 -0.31113523245 0.45243427157 -1.1641172171 0.14449293911
          0 0 0 4.7022342682 -5.7580804825 -0.56421411037
          1.2971855402 -1.1985096931 0.43958988786 2.8390412331 -2.6995580196 0.6205907464
          0.97258138657 -2.4431521893 -2.4107425816e-06 6.067797184 -6.1224217415 1.5554283891e-05
          0.028338784352 -0.44590106606 -6.4342902988e-06 0.22195498645 -1.2676717043 -0.12918826938
          4.7217674255 -5.8210954666 -0.28313243389 6.2856945992 -4.8106441498 0.79917103052
          0 0 0 1.6764483452 -3.7807068825 -0.41240796447
          4.935608387 -4.4546976089 0.69624406099 0.23019175231 -1.3152434826 -7.7149652498e-06
          1.6677174568 -3.8556685448 -0.20100788772 4.7268772125 -5.8428583145 1.0998274774e-05
          0.23377631605 -0.17921358347 0.16954474151 2.7136161327 -4.0261063576 0.25130182505
          3.473654747 -5.5276327133 -0.48213425279 7.5584602356 -6.4314360619 0.36374998093
          0.46902322769 -2.3589251041 -0.2898927927 1.9867607355 -2.4898414612 0.48702800274
          0 0 0 0.98165178299 -2.4166705608 0.19166275859
          3.4809958935 -5.5930776596 -0.2420540601 0.0017080551479 -0.38046392798 0.067102089524
          0.48045361042 -2.4379620552 -0.14125332236 6.0593261719 -6.1009316444 0.32312488556
          3.7821521759 -4.1642985344 0.59489619732 0.50800067186 -1.064641118 0.27720651031
          8.66360569 -8.0372142792 -0.6644154191 0 0 0
          1.6566383839 -3.8782513142 -1.1669776541e-06 7.0527210236 -7.7276034355 -0.60196942091
          8.6940145493 -8.0845117569 -0.33279883862 0 0 0
          -0.011788903736 -0.59534853697 -0.078134298325 7.0806617737 -7.7772188187 -0.30081242323
          3.4808580875 -5.6148939133 6.1562595874e-06 -0.048613976687 -0.63083040714 -0.044587448239
          0.2219633162 -1.2676672935 0.12917342782 0.47310763597 -2.4632017612 -7.5372190622e-06
          4.7217750549 -5.8210878372 0.28315460682 5.5908937454 -7.4616165161 -0.53698658943
          -0.27822294831 -1.3637951612 -0.21649238467 8.7009725571 -8.1010780334 2.615386984e-05
          0 0 0 -0.27650693059 -1.4231203794 -0.097948722541
          5.6090698242 -7.5129103661 -0.26843267679 7.088988781 -7.7944359779 2.1166039005e-05
          -0.047903288156 -0.64474534988 -7.4296576713e-06 2.713835001 -3.9516358376 0.49720790982
          2.3177046776 -5.3367815018 -0.38588029146 7.522796154 -6.3710379601 0.72411429882
          0 0 0 0.72151768208 -3.6779735088 -0.24248749018
          1.6677256823 -3.8556613922 0.20100584626 1.0143944025 -2.3426337242 0.39474105835
          6.0268416405 -6.0387849808 0.64470475912 0.066813737154 -0.32925415039 0.18289643526
          0.72144001722 -3.7727167606 -0.1356986016 2.3136436939 -5.4098248482 -0.19415418804
          3.4810039997 -5.5930700302 0.24206663668 0.48046305776 -2.4379558563 0.14123865962
          5.6147494316 -7.5304245949 1.5662564692e-05 -0.27328369021 -1.4379974604 -1.5132867702e-05
          4.2303743362 -7.2456512451 -0.46832555532 -0.13872414827 -2.5254220963 -0.21793681383
          0.2307292223 -1.2219593525 0.31112119555 8.694021225 -8.0845022202 0.33285117149
          4.7022500038 -5.75806427 0.56423687935 0 0 0
          2.3107447624 -5.4304022789 1.1650284932e-06 0.71758246422 -3.7904968262 -5.7935612858e-06
          4.2369775772 -7.2975902557 -0.23357878625 7.0806689262 -7.7772097588 0.30085477233
          -0.16311039031 -2.5891087055 -0.094958171248 -0.048609085381 -0.63082623482 0.044573843479
          1.6764627695 -3.7806916237 0.41240677238 4.2388858795 -7.3136339188 9.8850587165e-06
          5.6090774536 -7.512901783 0.26846414804 -0.2764916718 -1.4231193066 0.097919844091
          -0.14928495884 -2.6201741695 -1.5032515876e-05 9.7219676971 -9.7842607498 -0.61900937557
          0 0 0 9.7459964752 -9.8231363297 -0.30977758765
          3.4736702442 -5.5276165009 0.48214763403 8.0172901154 -9.4953269958 -0.56784152985
          0.46903821826 -2.3589105606 0.28987890482 1.0096672773 -5.202644825 -0.25562444329
          0.017695866525 -0.77998924255 -0.070092827082 0.72145026922 -3.7727098465 0.13568714261
          2.3136534691 -5.4098176956 0.19415698946 0 0 0
          8.0396823883 -9.5364189148 -0.28327453136 0.99926167727 -5.2873382568 -0.13851717114
          -0.012462407351 -0.80109679699 -0.027485588565 2.9139959812 -7.0832920074 -0.39089593291
          0.03047070466 -3.8550920486 -0.27065739036 8.6636209488 -8.0371952057 0.66446781158
          0 0 0 7.0527377129 -7.7275848389 0.60201185942
          9.752196312 -9.836769104 3.3244239603e-05 -0.017120225355 -3.8803169727 -0.10687106103
          2.9020049572 -7.1311502457 -0.19646802545 -0.011787394062 -0.5953425169 0.078125022352
          6.4348373413 -9.2514629364 -0.51413339376 -0.00040623618406 -1.6451423168 -0.12030723691
          0 0 0 4.2369866371 -7.2975821495 0.23359884322
          -0.16309688985 -2.5891034603 0.09492918849 8.0465221405 -9.5506095886 2.735484486e-05
          1.0072208643 -5.3107633591 -3.4720594613e-06 6.4509243965 -9.2933320999 -0.25611960888
          -0.033566705883 -1.6894437075 -0.05866066739 -0.013980832882 -0.81113022566 -6.7286978265e-06
          5.5909104347 -7.4615979195 0.53701841831 -0.27820682526 -1.3637803793 0.21646404266
          2.8999128342 -7.1447997093 4.1928296923e-06 0.00025938553154 -3.9158713818 -1.3535393009e-05
          2.3177223206 -5.3367657661 0.38588419557 6.4558353424 -9.3074913025 2.0924164346e-05
          -0.040147729218 -1.7007759809 -1.1808318959e-05 0.72153526545 -3.6779577732 0.24247650802
          9.7460021973 -9.8231248856 0.30984395742 4.9443020821 -9.0700349808 -0.46064060926
          0 0 0 -0.071158237755 -2.7278165817 -0.1538245976
          4.9523301125 -9.1090755463 -0.22844952345 8.039689064 -9.5364084244 0.28332909942
          -0.012461050414 -0.80109286308 0.027473032475 0.99927294254 -5.2873306274 0.13851082325
          -0.090041153133 -2.7763381004 -0.071774892509 4.2303915024 -7.2456336021 0.46834650636
          1.4269080162 -6.9507770538 -0.33559846878 2.9020164013 -7.1311440468 0.19647710025
          -0.13870368898 -2.5254063606 0.21790918708 -0.01710418053 -3.8803110123 0.10684549809
          0.29323747754 -5.3803973198 -0.36438295245 1.398553133 -6.9919986725 -0.16297854483
          4.9545469284 -9.1217660904 1.4200584701e-05 6.4509315491 -9.2933225632 0.25616145134
          -0.03356481716 -1.6894388199 0.058636166155 0.26143553853 -5.372961998 -0.14001445472
          -0.10434830189 -2.7924745083 -1.5813937353e-05 10.71668911 -11.592951775 -0.58661973476
          0 0 0 0.032194584608 -0.85914492607 -0.043070070446
          1.3954304457 -7.0061855316 -8.2612592678e-07 3.5058925152 -8.9559822083 -0.41338554025
          8.9298725128 -11.319454193 -0.54084891081 9.7219829559 -9.7842378616 0.61907541752
          0 0 0 0 0 0
          0.27173995972 -5.4096250534 -1.2044309187e-05 -0.1125357002 -4.0386343002 -0.14585217834
          10.734499931 -11.627573967 -0.29335004091 3.5008478165 -8.983335495 -0.20579497516
          8.9468364716 -11.355882645 -0.26936775446 8.0173063278 -9.4953050613 0.56789577007
          0.013093194924 -0.87910228968 -0.017606519163 1.0096871853 -5.2026286125 0.2556193769
          0.017693135887 -0.77998316288 0.070080801845 -0.1481051147 -4.0924601555 -0.10534866899
          4.9523386955 -9.1090669632 0.22847817838 -0.090036168694 -2.7763326168 0.071743376553
          7.2322950363 -11.093172073 -0.49154832959 2.9140160084 -7.0832772255 0.39090639353
          0.030495528132 -3.8550760746 0.27063456178 0 0 0
          0.014111275785 -1.8133283854 -0.072708874941 10.739689827 -11.639582634 4.0576065658e-05
          0.010493936017 -0.88536345959 -5.491102911e-06 3.4996109009 -8.9937295914 7.5471598393e-06
          7.2458963394 -11.129453659 -0.24364501238 6.4348535538 -9.2514419556 0.51417523623
          8.9518136978 -11.367917061 3.3801046811e-05 -0.00040781905409 -1.6451339722 0.12028457224
          -0.14307911694 -4.0999903679 -1.8127198928e-05 -0.0047350251116 -1.8451867104 -0.034356992692
          1.3985691071 -6.9919924736 0.1629780829 0.26145616174 -5.3729572296 0.13999341428
          0.65326142311 -7.0821781158 -0.39362561703 7.2484254837 -11.140551567 2.6540097679e-05
          -0.011543618515 -1.856708169 -1.1322546015e-05 0.66026288271 -7.0857572556 -0.16906942427
          5.6179451942 -10.93359375 -0.44272768497 0 0 0
          -0.026793517172 -2.9322686195 -0.091689229012 10.734503746 -11.627560616 0.29343086481
          0.013092365116 -0.87909942865 0.017595803365 3.5008592606 -8.9833297729 0.20581083
          5.6276321411 -10.965871811 -0.21826718748 4.9443187714 -9.070016861 0.46066987514
          8.9468412399 -11.355870247 0.2694349885 2.0514831543 -8.8444290161 -0.41134604812
          -0.33150261641 -5.656308651 -0.41846257448 -0.071154542267 -2.7278056145 0.15379500389
          -0.046519320458 -2.9735155106 -0.046265281737 -0.14809554815 -4.0924530029 0.10531282425
          2.0206949711 -8.8581867218 -0.18861347437 -0.31093356013 -5.6246824265 -0.18738016486
          0.65502250195 -7.1070609093 -9.2873669928e-06 1.4269344807 -6.9507637024 0.33560162783
          7.2459020615 -11.129443169 0.24369782209 0.29326799512 -5.3803834915 0.36436596513
          5.6265687943 -10.976176262 1.8898392227e-05 -0.0047366097569 -1.8451821804 0.034334614873
          -0.052138630301 -2.9866812229 -1.6307198166e-05 1.9929176569 -8.8615503311 1.8599108671e-06
          -0.29354506731 -5.6293878555 -2.2613743567e-05 -0.090124204755 -4.2702407837 -0.12516283989
          4.0826420784 -10.833291054 -0.40762448311 10.716701508 -11.592925072 0.58669960499
          0 0 0 0.66028696299 -7.0857539177 0.16905386746
          0.032188206911 -0.85914081335 0.04305883497 -0.10501915962 -4.3130068779 -0.062857352197
          3.5059123039 -8.9559669495 0.41340309381 8.9298868179 -11.319428444 0.54091519117
          4.0885095596 -10.858483315 -0.19975292683 11.669969559 -13.454320908 -0.56644791365
          0 0 0 -0.11252400279 -4.0386199951 0.14582133293
          11.681787491 -13.488365173 -0.2829285562 0.015889087692 -0.90210658312 -0.020404215902
          9.8052129745 -13.188879013 -0.52048319578 5.6276392937 -10.965862274 0.21830500662
          0 0 0 -0.046520669013 -2.9735097885 0.046232961118
          9.8169355392 -13.224253654 -0.25878021121 0.0071880044416 -0.92014664412 -0.0078208707273
          2.0207195282 -8.8581848145 0.18861864507 -0.31091102958 -5.6246795654 0.18734116852
          7.2323083878 -11.093149185 0.49160051346 -0.10967942327 -4.3287625313 -2.0248697183e-05
          4.0849399567 -10.867789268 1.1245831956e-05 0.014103388414 -1.8133218288 0.072686858475
          0.97699272633 -8.8172082901 -0.32809376717 0.012345246039 -1.9033515453 -0.033070459962
          7.9966430664 -12.968916893 -0.46939256787 -0.096226431429 -7.3222060204 -0.37984603643
          11.685837746 -13.499853134 4.7527199058e-05 0 0 0
          0.98946982622 -8.8582210541 -0.16877672076 9.820432663 -13.235152245 3.9977188862e-05
          0.005780168809 -0.92590487003 -4.901885859e-06 8.0051374435 -13.001765251 -0.23108707368
          0.00218815892 -1.9317398071 -0.015830399469 -0.081966198981 -7.328294754 -0.17625488341
          0.65329492092 -7.0821638107 0.39361336827 0.97674870491 -8.85962677 -4.0153340706e-06
          -0.098073147237 -5.7658133507 -0.13369169831 -0.10501948744 -4.3129997253 0.062817640603
          2.7035176754 -10.747878075 -0.3818577826 8.0041303635 -13.00833416 3.2073934563e-05
          5.6179599762 -10.933573723 0.44276550412 4.0885205269 -10.858476639 0.19977587461
          -0.063912600279 -7.3317699432 -1.990457713e-05 -0.0011827888666 -1.9413486719 -1.0961739463e-05
          -0.026800025254 -2.9322590828 0.091658055782 11.681787491 -13.488349915 0.28302302957
          6.2632441521 -12.817752838 -0.41377481818 -0.1156418696 -5.8297286034 -0.090182282031
          -0.0059604584239 -3.0542037487 -0.045395597816 2.67958951 -10.765738487 -0.18535196781
          2.0515186787 -8.844417572 0.41135343909 -0.33147424459 -5.6562895775 0.41842448711
          0 0 0 -0.015604708344 -3.0899140835 -0.021934190765
          9.8169364929 -13.224240303 0.25885948539 0.0071861864999 -0.92014461756 0.0078111425973
          6.2609100342 -12.844161034 -0.19948747754 -0.11897625774 -5.8274407387 -2.0842622689e-05
          2.6426095963 -10.762881279 4.5352180678e-06 0.98949176073 -8.8582201004 0.16877005994
          6.2471904755 -12.847067833 2.4058084819e-05 -0.019770912826 -3.10232234 -1.6968035197e-05
          8.0051393509 -13.001753807 0.23115065694 0.0021842240822 -1.9317364693 0.015808314085
          -0.081942051649 -7.328294754 0.17621839046 -0.090128205717 -4.2702269554 0.12512391806
          4.0826625824 -10.833273888 0.40764856339 4.651198864 -12.728401184 -0.37325397134
          11.669975281 -13.454291344 0.56654053926 0 0 0
          -0.018025390804 -4.380654335 -0.053334802389 0.015881123021 -0.90210354328 0.020393032581
          9.8052206039 -13.18885231 0.52056062222 -0.11564394087 -5.8297228813 0.090137429535
          2.6796133518 -10.76573658 0.18536163867 4.6393251419 -12.751880646 -0.17446897924
          0.15665984154 -9.0637025833 -0.37599667907 -0.029689481482 -4.4242687225 -0.028331292793
          -0.015609910712 -3.0899097919 0.021900389344 6.260913372 -12.844153404 0.1995344311
          0.14661546052 -9.0606031418 -0.15278631449 1.3010542393 -10.667654991 -0.2981030345
          -0.19273364544 -7.3974013329 -0.13080501556 12.602288246 -15.372133255 -0.55681324005
          0 0 0 10.658813477 -15.109153748 -0.5077880621
          0.97702342272 -8.8171987534 0.32808366418 0.01233333163 -1.9033461809 0.033048141748
          7.9966511726 -12.968892097 0.46945464611 -0.19069609046 -7.4653358459 -0.12646146119
          1.2897883654 -10.698684692 -0.1620760113 -0.09619410336 -7.3221902847 0.37981271744
          12.608730316 -15.407845497 -0.27782511711 0 0 0
          -0.033184550703 -4.438056469 -2.1918558559e-05 4.6157426834 -12.759957314 1.5102311409e-05
          -0.0023519217502 -0.91256594658 0.0041019520722 10.665273666 -15.145723343 -0.25237441063
          -0.0018981356407 -0.93075585365 0.0018850320484 0.17184402049 -9.0827627182 -2.0639468858e-05
          8.7431793213 -14.887076378 -0.45327684283 -0.14953193069 -7.4716563225 -1.8920320144e-05
          1.2822859287 -10.696561813 -2.4292980925e-06 12.611599922 -15.419568062 5.3162300901e-05
          0 0 0 -0.00055091228569 -1.9275432825 0.0038658829872
          8.7473516464 -14.918927193 -0.22254255414 10.667485237 -15.156671524 4.4970332965e-05
          -0.098078034818 -5.7657985687 0.13364772499 2.7035460472 -10.747866631 0.38186764717
          -0.0021629692055 -0.93604272604 -4.7515022743e-06 -0.0019046732923 -1.9551525116 0.002422203077
          6.2632546425 -12.817732811 0.41382047534 -0.0059738452546 -3.0541956425 0.045362107456
          -0.038846921176 -5.8862652779 -0.065709777176 3.1964468956 -12.68209362 -0.34618341923
          -0.029695987701 -4.4242634773 0.028287395835 4.6393342018 -12.751875877 0.17449891567
          -0.048551440239 -5.9354996681 -0.035738926381 3.1860125065 -12.69418335 -0.17075814307
          0.14664457738 -9.0606050491 0.1527531445 8.7466669083 -14.923420906 3.6850447941e-05
          -0.0026238574646 -1.9643950462 -1.1248044757e-05 6.8892154694 -14.732295036 -0.39607799053
          -0.19070851803 -7.4653329849 0.12641964853 1.2898091078 -10.698680878 0.16207036376
          12.608724594 -15.407829285 0.27793049812 0 0 0
          0.0077895154245 -3.0839035511 0.0016041152412 6.8557076454 -14.748308182 -0.18807640672
          10.665268898 -15.145709038 0.25246331096 0.0036373429466 -3.1187529564 0.0011784360977
          -0.047585535794 -5.9544782639 -2.5418956284e-05 3.1699843407 -12.697367668 6.2656185946e-06
          -0.0019005793147 -0.93075460196 -0.0018946368946 8.7473487854 -14.918915749 0.22261531651
          6.815123558 -14.737252235 2.8882932384e-05 0.0020831329748 -3.130408287 -1.8180357074e-05
          4.6512169838 -12.728385925 0.37328460813 0.45104289055 -10.899638176 -0.40396633744
          -0.0019099810161 -1.9551503658 -0.0024449853227 -0.018039934337 -4.3806438446 0.053291469812
          -0.48912718892 -9.3197107315 -0.30254164338 0.44560301304 -10.872534752 -0.14543379843
          0.15670154989 -9.0636911392 0.37596896291 -0.42194437981 -9.3276939392 -0.17553733289
          -0.048560250551 -5.9354948997 0.035687744617 3.1860287189 -12.69418335 0.17077168822
          1.3010841608 -10.667637825 0.29810529947 -0.19274507463 -7.3973870277 0.13074855506
          0.022413667291 -4.4131565094 -0.0049669598229 5.1770048141 -14.671179771 -0.35138171911
          12.602283478 -15.372099876 0.55691564083 0 0 0
          10.658810616 -15.109125137 0.50787401199 0.015711275861 -4.4524173737 -0.0022342947777
          0.43509101868 -10.882271767 -2.1296054911e-05 -0.080209188163 -7.5888776779 -0.094189189374
          1.7140791416 -12.628537178 -0.3573397398 5.1002597809 -14.669612885 -0.16482487321
          -0.0023610813078 -0.91256380081 -0.0041134846397 -0.14195673168 -9.2507371902 -2.3346727176e-05
          6.8557004929 -14.748299599 0.18813292682 0.0036299722269 -3.1187503338 -0.0012147726957
          1.6763367653 -12.621910095 -0.15610907972 -0.079730607569 -7.6353020668 -0.05118759349
          8.7431764603 -14.887051582 0.4533470273 0.013875880279 -4.466650486 -2.4690016289e-05
          5.0063443184 -14.653572083 1.8902039301e-05 -0.00056549505098 -1.9275394678 -0.0038893513847
          1.6381841898 -12.612062454 3.4746642541e-07 13.527853966 -17.357526779 -0.55487555265
          0 0 0 -0.06230975315 -7.6387515068 -2.81847515e-05
          13.530148506 -17.395595551 -0.27676007152 0 0 0
          0.44564172626 -10.872540474 0.14540454745 11.501488686 -17.094705582 -0.5027385354
          -0.038863375783 -5.8862538338 0.065657421947 3.1964740753 -12.682087898 0.34620079398
          -0.023212330416 -0.89270567894 0.030219659209 -0.42198547721 -9.3277015686 0.17549039423
          11.503893852 -17.133008957 -0.25031539798 -0.013253239915 -0.91206663847 0.012615088373
          6.8892197609 -14.732276917 0.39613252878 13.531929016 -17.407976151 5.6116346968e-05
          0.015702355653 -4.4524140358 0.0021850722842 9.4834566116 -16.867530823 -0.44811296463
          -0.019187236205 -1.892462492 0.042988177389 5.1002645493 -14.669610977 0.16486318409
          0 0 0 3.6461904049 -14.668745995 -0.35514956713
          0.045256260782 -5.9301481247 -0.018526107073 0.0077718496323 -3.0838978291 -0.0016403917689
          -0.012486828491 -1.9214729071 0.021633533761 9.4838352203 -16.902584076 -0.22167746723
          11.505070686 -17.14481163 4.7495916078e-05 1.6763758659 -12.621918678 0.15611195564
          0.038404367864 -5.9716992378 -0.010243494995 3.6218817234 -14.659943581 -0.16811202466
          -0.079742833972 -7.63530159 0.051130522043 -0.012598962523 -0.91741085052 -4.9171067076e-06
          -0.37557092309 -11.163615227 -0.40347024798 9.4841060638 -16.911569595 3.9649497921e-05
          0.45109140873 -10.899624825 0.40394839644 -0.010427908041 -1.9309812784 -1.1934517715e-05
          0.039271399379 -5.986682415 -3.0618452001e-05 -0.3364802897 -11.157946587 -0.16815719008
          3.5999085903 -14.649244308 8.8698889158e-06 -0.48915725946 -9.3197078705 0.30253461003
          13.530134201 -17.395576477 0.27687087655 7.5041308403 -16.693742752 -0.39857134223
          -0.097854115069 -9.4156455994 -0.10653554648 0 0 0
          0.0030385334976 -3.0352380276 0.048187181354 0.77646780014 -12.772378922 -0.36427050829
          0.0046734781936 -3.0714166164 0.024826636538 7.4651675224 -16.71292305 -0.1962980032
          11.503881454 -17.132993698 0.25040891767 -0.08543600142 -9.4747743607 -0.076677441597
          0.78269273043 -12.779063225 -0.15383124352 -0.013255981728 -0.91206616163 -0.012625077739
          0.022394072264 -4.41314888 0.0049181729555 5.1770200729 -14.671165466 0.35142081976
          -0.31289213896 -11.131779671 -3.8756028516e-05 -0.08022916317 -7.5888681412 0.094132907689
          1.7141487598 -12.628550529 0.35735285282 7.4205727577 -16.707639694 3.2097665098e-05
          9.4838228226 -16.902572632 0.22175547481 -0.10564552993 -9.4749937057 -3.0761471862e-05
          -0.012492815033 -1.9214721918 -0.021657722071 0.0051815104671 -3.0831997395 -1.9763423552e-05
          0.038394134492 -5.9716968536 0.01018242538 3.6219022274 -14.659942627 0.16813264787
          0.73894810677 -12.768854141 -1.1264747627e-05 2.3261504173 -14.675955772 -0.36624398828
          0.081839285791 -7.6269955635 -0.03368877992 2.2412538528 -14.643204689 -0.16561818123
          0.077882230282 -7.67283535 -0.022762864828 13.527832031 -17.35749054 0.55498206615
          0 0 0 -0.33644858003 -11.157962799 0.16809979081
          0.04497563839 -4.3568091393 0.046223215759 5.616312027 -16.607786179 -0.36519509554
          0.041147019714 -4.3976473808 0.022812016308 11.501468658 -17.094675064 0.50282770395
          -0.023222284392 -0.89270454645 -0.030231794342 5.5202798843 -16.599681854 -0.19182547927
          7.4651536942 -16.712915421 0.19636180997 -0.085443295538 -9.4747743607 0.076615691185
          0.0046651801094 -3.0714156628 -0.024866109714 0.78272587061 -12.779075623 0.15382172167
          2.1287434101 -14.592843056 2.2787442049e-06 0.081006832421 -7.6910862923 -3.6006520531e-05
          9.4834384918 -16.867506027 0.44818693399 -0.019203448668 -1.8924607038 -0.043013136834
          3.6462228298 -14.66873455 0.35517534614 0.04086722061 -4.4108433723 -2.7666255846e-05
          0.045235164464 -5.9301395416 0.018465841189 5.3585753441 -16.561569214 2.2709102268e-05
          14.45452404 -19.421577454 -0.55742990971 0 0 0
          -0.37553009391 -11.163601875 0.40341457725 2.2412998676 -14.64320755 0.16562779248
          0 0 0 12.33997345 -19.157644272 -0.50242829323
          -0.301330477 -11.267633438 -0.044097565114 0.077871769667 -7.6728334427 0.022690827027
          -0.04169986397 -0.84050190449 0.059973977506 -0.099601864815 -13.033154488 -0.35607966781
          14.454422951 -19.462076187 -0.27815023065 7.5041179657 -16.693725586 0.39863267541
          12.340159416 -19.197992325 -0.2508045435 -0.021988393739 -0.86174947023 0.024402370676
          -0.097871005535 -9.4156303406 0.10646566749 -0.23582342267 -11.353053093 -0.1427885741
          0.0030185040087 -3.035235405 -0.048226479441 4.0970640182 -16.592435837 -0.36125272512
          0.041137240827 -4.397646904 -0.022867048159 0.77650672197 -12.772377014 0.36424452066
          0.095495186746 -5.8732357025 0.029695840552 5.5202817917 -16.599683762 0.19187368453
          -0.087087079883 -13.04541111 -0.13329458237 0.090049080551 -5.9164409637 0.014920976013
          4.0715579987 -16.602449417 -0.16504302621 10.223157883 -18.925252914 -0.44858714938
          14.455363274 -19.475273132 5.4604137404e-05 -0.039676513523 -1.8038170338 0.084267757833
          0 0 0 10.221834183 -18.963863373 -0.22382040322
          -0.024086976424 -1.835478425 0.042887263 12.340677261 -19.211082458 4.5781183871e-05
          1.0511206388 -14.650549889 -0.31239283085 -0.090212583542 -11.366889 -2.602890163e-05
          -0.071075715125 -13.028828621 -3.4886721551e-05 0.10870498419 -9.4615068436 -0.057112362236
          -0.020099904388 -0.86760312319 -5.2215277719e-06 1.0376659632 -14.659939766 -0.15724350512
          4.0356593132 -16.607412338 1.0432368072e-05 0.1251026243 -9.5225381851 -0.028024392202
          0.091979280114 -5.9295668602 -3.5505618143e-05 2.3262004852 -14.675944328 0.36625251174
          10.220801353 -18.977067947 3.868919157e-05 0.081817887723 -7.6269855499 0.03361646086
          -0.019209356979 -1.8454072475 -1.2729908121e-05 8.1221370697 -18.731323242 -0.40110608935
          14.454397202 -19.462057114 0.2782574892 0.98239052296 -14.630313873 -9.8014834293e-06
          -0.012490825728 -2.9181015491 0.10085909069 0.044953364879 -4.3568053246 -0.04627731815
          0.1410870105 -9.5516872406 -4.054519377e-05 5.6163253784 -16.607776642 0.36524140835
          0 0 0 8.1065301895 -18.760807037 -0.20500738919
          -0.0048373816535 -2.9571597576 0.050449974835 12.340134621 -19.197977066 0.25089409947
          -0.23585493863 -11.353053093 0.14272201061 -0.087058052421 -13.045420647 0.13324818015
          -0.021991152316 -0.86174982786 -0.024412952363 4.0715918541 -16.602453232 0.16506832838
          0.090038456023 -5.9164404869 -0.014991555363 10.221810341 -18.963851929 0.22389578819
          8.0856180191 -18.770572662 3.2815383747e-05 2.7621946335 -16.596206665 -0.33865621686
          0.1568877548 -7.5613117218 0.0090754050761 -0.0020677805878 -2.9700491428 -2.1281881345e-05
          -0.024093000218 -1.8354793787 -0.042913038284 0.16866193712 -7.6126918793 0.0026010430884