<?xml version="1.0"?>
<VTKFile type="UnstructuredGrid" version="0.1" byte_order="LittleEndian" header_type="UInt32" compressor="vtkZLibDataCompressor">
  <UnstructuredGrid>
    <Piece NumberOfPoints="6405" NumberOfCells="4800">
      <PointData>
        <DataArray type="Float32" Name="DISPLACEMENT" NumberOfComponents="3" ComponentName0="X-DISPLACEMENT" ComponentName1="Y-DISPLACEMENT" ComponentName2="Z-DISPLACEMENT" format="ascii" RangeMin="0" RangeMax="249.34884097">
          0 0 0 0 0 0
          2.0120565891 -1.2313382626 -0.9317600131 0 0 0
          1.2983760834 -0.72785669565 -0.72168904543 0 0 0
          1.8372548819 -1.3589009047 -0.37061792612 1.1297264099 -0.83319026232 -0.29441612959
          0 0 0 3.6108686924 -2.2558662891 -0.95584452152
          0 0 0 3.5596165657 -2.4066734314 -0.49352508783
          2.6072530746 -1.8504009247 -0.79543977976 0 0 0
          0 0 0 1.8438566923 -1.4023672342 1.6530350422e-06
          0.94402605295 -0.49458962679 -0.5556948185 1.125210762 -0.8546833992 7.535795703e-07
          2.5522446632 -1.971203208 -0.40634092689 0.81145602465 -0.59236544371 -0.22508253157
          3.5197649002 -2.4492611885 3.4440076888e-06 1.8966567516 -1.5087913275 -0.62106364965
          0 0 0 2.5176441669 -2.0111572742 1.7618481252e-06
          1.8396760225 -1.6219110489 -0.31881001592 0 0 0
          5.0652165413 -3.57234478 -0.89695763588 0 0 0
          0.80549758673 -0.61084568501 -1.7856667966e-07 0 0 0
          0 0 0 1.837254405 -1.3588993549 0.37062111497
          3.8390905857 -3.1823356152 -0.75961792469 5.0808792114 -3.682352066 -0.45754465461
          0.6847256422 -0.32787618041 -0.37627881765 1.1297267675 -0.83318853378 0.29441761971
          3.8520994186 -3.2862522602 -0.38719078898 0.59956812859 -0.43590867519 -0.15734748542
          1.809253335 -1.6526098251 -4.3429043473e-08 3.5596163273 -2.4066700935 0.49353203177
          0 0 0 0 0 0
          1.2949426174 -1.2866749763 -0.42968600988 2.862154007 -2.8736035824 -0.62337315083
          5.0682864189 -3.7223713398 5.5176578826e-06 2.5522456169 -1.9711996317 0.40634453297
          2.854426384 -2.9727351665 -0.31660276651 0.81145638227 -0.59236347675 0.22508223355
          3.8434212208 -3.3210718632 3.0419630548e-06 1.236674428 -1.3983328342 -0.2221019268
          0.60081940889 -0.45166185498 -1.4877915646e-06 0 0 0
          6.4160900116 -5.0679345131 -0.80347150564 0 0 0
          5.0040163994 -4.7122483253 -0.70068138838 1.8396769762 -1.6219073534 0.31880998611
          6.4528851509 -5.148460865 -0.40676808357 2.0120573044 -1.2313352823 0.93176323175
          0 0 0 0 0 0
          1.2145490646 -1.4264235497 -2.0397117169e-06 2.8446571827 -3.0033211708 4.649615164e-07
          0.25366947055 -0.24935373664 -0.16059239209 5.0367236137 -4.7920212746 -0.35343977809
          1.2983775139 -0.72785311937 0.72169077396 1.9746629 -2.6673331261 -0.48348850012
          0 0 0 5.0808796883 -3.6823472977 0.45755577087
          0.20974135399 -0.38313287497 -0.083242923021 1.9447892904 -2.7570996284 -0.24645344913
          3.8521008492 -3.286247015 0.38719692826 0.59956878424 -0.43590646982 0.15734469891
          3.8039319515 -4.4278488159 -0.59931695461 0.45325860381 -1.1579916477 -0.24644055963
          6.4539260864 -5.1767716408 7.7926897575e-06 3.6108701229 -2.2558596134 0.95585167408
          0 0 0 0 0 0
          3.8175377846 -4.5055212975 -0.30211758614 2.6072556973 -1.8503940105 0.79544353485
          5.0417156219 -4.8198122978 4.5907568165e-06 0.39487367868 -1.268928051 -0.13445134461
          0.944026649 -0.49458551407 0.55569463968 0.22095395625 -0.41732159257 -3.2434941204e-06
          1.934720397 -2.7854645252 -2.3011361918e-06 2.8544278145 -2.9727296829 0.31660374999
          1.2366753817 -1.3983289003 0.22209788859 3.8184196949 -4.5319757462 1.300715553e-06
          1.8966584206 -1.5087838173 0.62106376886 0.38536134362 -1.2995105982 -4.1097614485e-06
          2.6893782616 -4.2314648628 -0.50344204903 6.4528861046 -5.1484546661 0.40678375959
          5.0652194023 -3.5723350048 0.89696902037 0 0 0
          7.652993679 -6.700211525 -0.72421467304 0 0 0
          0 0 0 0.91641771793 -2.5238556862 -0.38909775019
          2.6859445572 -4.3038005829 -0.25445947051 7.6894011497 -6.7592744827 -0.36409008503
          6.0960006714 -6.3708767891 -0.64720600843 5.0367255211 -4.7920145988 0.35344901681
          0.023333866149 -0.43805149198 -0.17792239785 0 0 0
          3.8390944004 -3.1823253632 0.75962430239 0.68472570181 -0.32787153125 0.37627622485
          0.87362349033 -2.5973935127 -0.18865093589 0.20974299312 -0.38313040137 0.083236858249
          -0.059893410653 -0.48592028022 -0.065651573241 1.9447906017 -2.7570939064 0.24644890428
          6.1291432381 -6.4322075844 -0.32423952222 3.8175396919 -4.5055146217 0.30212023854
          2.6833136082 -4.33076334 -2.1900057163e-06 7.6956996918 -6.7803592682 1.0258946531e-05
          0.16466632485 -1.3787157536 -0.33634245396 0.39487582445 -1.2689239979 0.13444310427
          0 0 0 4.7166047096 -6.0998163223 -0.56873893738
          1.2949434519 -1.2866668701 0.42968213558 2.8621566296 -2.8735928535 0.62337428331
          0.86342895031 -2.62388587 -5.2950545069e-06 6.1377177238 -6.4536552429 6.3952043092e-06
          -0.045274943113 -0.54379940033 -6.5661074586e-06 0.13865025342 -1.4016902447 -0.13177900016
          4.7365407944 -6.1616392136 -0.28535348177 6.4160943031 -5.0679216385 0.80348747969
          0 0 0 1.5919318199 -4.078286171 -0.43120077252
          5.0040211678 -4.7122349739 0.70069086552 0.14466507733 -1.450378418 -8.4882012743e-06
          1.5776816607 -4.1476888657 -0.2078306973 4.7416911125 -6.1832413673 2.4454270715e-06
          0.25367036462 -0.24934852123 0.16058690846 2.6859464645 -4.3037929535 0.25445514917
          3.4382867813 -5.8869948387 -0.49020048976 7.6894025803 -6.7592663765 0.36411067843
          0.40407553315 -2.6068110466 -0.33304789662 1.9746646881 -2.6673219204 0.48348408937
          0 0 0 0.87362605333 -2.5973877907 0.18864035606
          3.4458692074 -5.9499821663 -0.24641723931 -0.059890657663 -0.48591771722 0.065639033914
          0.42086598277 -2.6700325012 -0.15316212177 6.1291456223 -6.4321994781 0.32425239682
          3.8039357662 -4.4278354645 0.59931975603 0.45326063037 -1.1579834223 0.24643243849
          8.7899360657 -8.4253072739 -0.66530108452 0 0 0
          1.5631418228 -4.1692476273 -6.0534839577e-06 7.1197214127 -8.1188993454 -0.60423886776
          8.8191976547 -8.4719343185 -0.33353537321 0 0 0
          0.060809720308 -0.66421014071 -0.1145434007 7.1469993591 -8.1684522629 -0.30173954368
          3.4453895092 -5.9714503288 -1.6834618464e-06 0.030147429556 -0.70523059368 -0.04247443378
          0.13865330815 -1.4016859531 0.13176238537 0.41100078821 -2.6955590248 -9.9058452179e-06
          4.7365431786 -6.1616311073 0.28535842896 5.5946726799 -7.8641448021 -0.53983598948
          -0.016713812947 -1.5771750212 -0.12264929712 8.8262329102 -8.4885578156 1.2921365851e-05
          0 0 0 -0.052385795861 -1.6354759932 -0.087818294764
          5.6138429642 -7.9150090218 -0.26975896955 7.1551280022 -8.1858034134 8.4502244135e-06
          0.021290967241 -0.71820914745 -5.078182312e-06 2.689381361 -4.2314500809 0.5034378171
          2.2469308376 -5.708946228 -0.3991855979 7.6529989243 -6.7001957893 0.72423547506
          0 0 0 0.65155386925 -4.0067534447 -0.25564232469
          1.5776844025 -4.1476812363 0.20781853795 0.91642063856 -2.5238440037 0.38908725977
          6.0960068703 -6.3708610535 0.64721912146 0.023334689438 -0.43804398179 0.17791004479
          0.65924316645 -4.1030936241 -0.14473627508 2.2433595657 -5.7794594765 -0.20092056692
          3.4458715916 -5.9499735832 0.24641388655 0.42086908221 -2.6700265408 0.15314242244
          5.6195197105 -7.932528019 3.8882167246e-06 -0.053779885173 -1.647004962 -9.8894970506e-06
          4.1807107925 -7.6694784164 -0.47344735265 -0.22309300303 -2.7972476482 -0.25262632966
          0.16466856003 -1.3787050247 0.33632573485 8.8192005157 -8.4719257355 0.33356130123
          4.716609478 -6.0998001099 0.56874400377 0 0 0
          2.2397167683 -5.7987890244 -6.1246046243e-06 0.65792161226 -4.1199007034 -1.0578842193e-05
          4.1899442673 -7.7197504044 -0.23573815823 7.147002697 -8.1684427261 0.301756531
          -0.24211145937 -2.8536086082 -0.10717605054 0.030147658661 -0.70522803068 0.042464602739
          1.5919355154 -4.0782709122 0.43118849397 4.1924161911 -7.7352523804 -8.2029140458e-07
          5.6138458252 -7.9149999619 0.26976680756 -0.052384573966 -1.63547194 0.087798349559
          -0.22808529437 -2.8706376553 -1.5529631128e-05 9.8506259918 -10.218762398 -0.62624979019
          0 0 0 9.871670723 -10.260005951 -0.31347709894
          3.4382908344 -5.8869776726 0.49019724131 8.083521843 -9.9309024811 -0.57196551561
          0.40407887101 -2.6067972183 0.33302792907 0.90833878517 -5.5794939995 -0.26240226626
          0.010910838842 -0.80632477999 -0.050064634532 0.65924602747 -4.1030859947 0.14471504092
          2.2433619499 -5.7794504166 0.20090831816 0 0 0
          8.1037006378 -9.9746313095 -0.28506356478 0.89951294661 -5.6648788452 -0.14491792023
          -0.011335528456 -0.83945763111 -0.020726555958 2.8385894299 -7.5368494987 -0.39783093333
          -0.029226087034 -4.2411975861 -0.29293727875 8.7899417877 -8.4252901077 0.66532725096
          0 0 0 7.1197280884 -8.1188812256 0.6042560339
          9.8780231476 -10.274546623 1.5801258996e-05 -0.081457473338 -4.2628822327 -0.11513725668
          2.8295214176 -7.5792222023 -0.20081967115 0.060806006193 -0.6642062068 0.11453402787
          6.4236869812 -9.6993722916 -0.51434493065 -0.044213593006 -1.8062570095 -0.086033366621
          0 0 0 4.1899466515 -7.7197408676 0.2357365638
          -0.24210777879 -2.8536026478 0.10714522004 8.1099338531 -9.9895410538 1.0757047676e-05
          0.91185253859 -5.6884002686 -1.0827296137e-05 6.4405560493 -9.7431402206 -0.25557935238
          -0.064473561943 -1.8525630236 -0.03858326748 -0.01299676951 -0.8477280736 -4.6062755246e-06
          5.5946788788 -7.8641262054 0.5398440361 -0.01671705395 -1.5771687031 0.12263159454
          2.8284399509 -7.5908007622 -5.7229835875e-06 -0.049652878195 -4.3064732552 -1.644697295e-05
          2.2469346523 -5.7089285851 0.39917331934 6.4450774193 -9.7576208115 5.6112767197e-06
          -0.071005396545 -1.8699401617 -9.8104192148e-06 0.65155774355 -4.0067372322 0.25562083721
          9.871673584 -10.259995461 0.31350874901 4.8687548637 -9.5464487076 -0.45890375972
          0 0 0 -0.074154391885 -2.9752008915 -0.101645872
          4.8800692558 -9.5849084854 -0.22723324597 8.1037044525 -9.9746208191 0.28508514166
          -0.011335930787 -0.83945596218 0.020717738196 0.89951574802 -5.6648697853 0.14489629865
          -0.093210287392 -3.0377438068 -0.058539763093 4.1807160378 -7.669459343 0.47344592214
          1.3325623274 -7.419822216 -0.36037433147 2.8295240402 -7.5792126656 0.20080828667
          -0.22308975458 -2.7972319126 0.25259527564 -0.08145390451 -4.2628741264 0.11510474235
          0.20952828228 -5.8144421577 -0.39930719137 1.301104784 -7.4496998787 -0.17045484483
          4.882027626 -9.5977315903 3.7637397554e-07 6.4405593872 -9.7431297302 0.25559064746
          -0.064474463463 -1.8525598049 0.038563933223 0.17896226048 -5.7936339378 -0.15253204107
          -0.10087207705 -3.0489914417 -1.4322851712e-05 10.864325523 -12.070827484 -0.60463303328
          0 0 0 -0.016951831058 -0.89166778326 -0.011932229623
          1.2941765785 -7.4603896141 -1.0758358258e-05 3.3939845562 -9.4732732773 -0.41804641485
          9.0013160706 -11.792648315 -0.54909527302 9.8506336212 -10.218742371 0.62628167868
          0 0 0 0 0 0
          0.19674018025 -5.8359026909 -1.6917267203e-05 -0.12139847875 -4.3250865936 -0.13096165657
          10.877687454 -12.112483978 -0.30222916603 3.3957362175 -9.4987325668 -0.20694163442
          9.0151472092 -11.836019516 -0.27310410142 8.0835294724 -9.9308815002 0.57198727131
          -0.023930009454 -0.91786891222 -0.00383151602 0.9083429575 -5.5794758797 0.26238077879
          0.010905951262 -0.80632275343 0.050055582076 -0.12895931304 -4.3908705711 -0.083233565092
          4.8800725937 -9.584897995 0.22723408043 -0.093211606145 -3.0377390385 0.058510940522
          7.2026824951 -11.576601982 -0.48894423246 2.8385939598 -7.5368304253 0.39781969786
          -0.02922209166 -4.2411799431 0.29290485382 0 0 0
          -0.059327438474 -1.9187375307 -0.022041972727 10.882897377 -12.126800537 1.8932038074e-05
          -0.025696288794 -0.92556816339 -4.0039117266e-06 3.3975977898 -9.510389328 -4.9640893849e-06
          7.2156920433 -11.617424965 -0.24184456468 6.4236941338 -9.6993513107 0.51435643435
          9.0196323395 -11.849982262 1.3312999727e-05 -0.044219441712 -1.8062525988 0.086014688015
          -0.13104480505 -4.4038720131 -1.7534594008e-05 -0.068397782743 -1.9584754705 -0.010634071194
          1.3011083603 -7.4496903419 0.17043337226 0.178966254 -5.7936253548 0.15249861777
          0.54677772522 -7.5840682983 -0.42392289639 7.2171096802 -11.628433228 7.5806651694e-06
          -0.07124145329 -1.9712651968 -8.8130555014e-06 0.56947016716 -7.5842299461 -0.18090437353
          5.5005502701 -11.448516846 -0.43102398515 0 0 0
          -0.11930445582 -3.1040570736 -0.033008042723 10.877690315 -12.112473488 0.30226707458
          -0.023930961266 -0.91786813736 0.003823681036 3.3957393169 -9.4987220764 0.20693176985
          5.5106091499 -11.48235321 -0.21064008772 4.8687610626 -9.5464277267 0.4589048028
          9.0151510239 -11.836008072 0.2731307745 1.9883280993 -9.4137926102 -0.42292135954
          -0.19871041179 -5.9332003593 -0.16892763972 -0.074160389602 -2.9751939774 0.10161922872
          -0.12736344337 -3.1540527344 -0.015515305102 -0.12896157801 -4.3908648491 0.083198525012
          1.960123539 -9.4232120514 -0.19687157869 -0.19414116442 -5.9792613983 -0.13131742179
          0.56363922358 -7.600356102 -1.7021204258e-05 1.332567811 -7.4198021889 0.36035314202
          7.215695858 -11.617413521 0.24185980856 0.20953305066 -5.8144226074 0.39927393198
          5.506269455 -11.492717743 1.7995738517e-06 -0.068399973214 -1.9584739208 0.010616488755
          -0.12972874939 -3.1716704369 -1.3625697648e-05 1.9274876118 -9.4202632904 -1.0493490663e-05
          -0.1134377718 -5.9450798035 -2.0883549951e-05 -0.1927420944 -4.4778413773 -0.040702499449
          3.9316887856 -11.391088486 -0.39832791686 10.864334106 -12.070804596 0.60467106104
          0 0 0 0.56947410107 -7.5842199326 0.18087050319
          -0.016957225278 -0.8916670084 0.011923704296 -0.20078778267 -4.5353045464 -0.022489303723
          3.3939900398 -9.4732513428 0.4180367291 9.0013246536 -11.792626381 0.54912209511
          3.9391083717 -11.415653229 -0.19478175044 11.859289169 -13.989754677 -0.59712970257
          0 0 0 -0.12140449136 -4.3250770569 0.13092777133
          11.866163254 -14.035610199 -0.2979260385 -0.043914780021 -0.92921942472 0.022613190114
          9.8950147629 -13.711471558 -0.53434759378 5.5106129646 -11.48234272 0.21064382792
          0 0 0 -0.127366364 -3.1540505886 0.015488516539
          9.9029140472 -13.758470535 -0.2658611536 -0.039280090481 -0.95201838017 0.0097183529288
          1.9601274729 -9.4232006073 0.19685056806 -0.19414529204 -5.9792575836 0.13127732277
          7.2026906013 -11.576579094 0.48895969987 -0.1970334053 -4.5484390259 -1.7912769181e-05
          3.932615757 -11.42670536 -3.9326669139e-06 -0.059335395694 -1.9187361002 0.02202482149
          0.83195543289 -9.4224424362 -0.31783899665 -0.096475876868 -1.9785952568 0.025135692209
          7.9489798546 -13.487886429 -0.46756231785 -0.25575229526 -7.8574428558 -0.40694537759
          11.86995697 -14.050774574 2.2349164283e-05 0 0 0
          0.85290944576 -9.4649658203 -0.18279848993 9.9059419632 -13.773236275 1.6104566384e-05
          -0.039401534945 -0.9584248662 -3.399949037e-06 7.9589705467 -13.530578613 -0.22985073924
          -0.094687469304 -2.0123670101 0.013912398368 -0.24397867918 -7.8628649712 -0.18076020479
          0.54678314924 -7.5840468407 0.42388868332 0.86336934566 -9.46322155 -1.6518919438e-05
          -0.28083699942 -6.0740275383 -0.06270686537 -0.20079085231 -4.535302639 0.022454114631
          2.5471060276 -11.347239494 -0.37518009543 7.9606852531 -13.539361 9.7504153018e-06
          5.5005574226 -11.448493958 0.43102800846 3.939111948 -11.415641785 0.19477397203
          -0.21850377321 -7.8536133766 -2.3657481506e-05 -0.094101898372 -2.0239100456 -7.7978984336e-06
          -0.11931309849 -3.1040546894 0.032982192934 11.866166115 -14.035597801 0.29797077179
          6.0875892639 -13.366782188 -0.39420124888 -0.2906075418 -6.1401557922 -0.032797992229
          -0.1577809602 -3.1803874969 0.026932975277 2.5492534637 -11.366483688 -0.18895290792
          1.9883344173 -9.4137706757 0.4229002893 -0.19871996343 -5.9331927299 0.16889359057
          0 0 0 -0.15763507783 -3.2223062515 0.014708704315
          9.9029178619 -13.758458138 0.26589339972 -0.039281312376 -0.95201832056 -0.0097250994295
          6.0754957199 -13.39396286 -0.19364753366 -0.30379289389 -6.1511788368 -2.1759977244e-05
          2.5399813652 -11.371565819 -9.7114498203e-06 0.85291278362 -9.4649553299 0.18276537955
          6.0503029823 -13.393295288 3.4318500184e-06 -0.15754924715 -3.2360639572 -1.2470592083e-05
          7.9589748383 -13.530566216 0.22987034917 -0.09469011426 -2.0123667717 -0.01392801106
          -0.24397492409 -7.8628549576 0.1807128787 -0.19275052845 -4.4778389931 0.040669284761
          3.9316952229 -11.391065598 0.39832037687 4.428030014 -13.332813263 -0.35535472631
          11.859297752 -13.989730835 0.59717446566 0 0 0
          -0.22762332857 -4.5650906563 0.029291188344 -0.043920252472 -0.92921984196 -0.022620853037
          9.8950233459 -13.711446762 0.53437995911 -0.29060861468 -6.1401524544 0.032755225897
          2.54925704 -11.366471291 0.18893350661 4.4168634415 -13.35026741 -0.16972224414
          0.028267662972 -9.7105035782 -0.40651956201 -0.22868211567 -4.6134939194 0.016013417393
          -0.15763840079 -3.2223060131 -0.014733406715 6.0755004883 -13.393951416 0.1936545521
          0.011011984199 -9.6862630844 -0.16826993227 1.1108970642 -11.269802094 -0.3362775445
          -0.39018756151 -7.8257317543 -0.0054536708631 12.855435371 -15.998581886 -0.59808278084
          0 0 0 10.781490326 -15.715693474 -0.52884912491
          0.83196121454 -9.422419548 0.31780558825 -0.096484191716 -1.9785959721 -0.025151299313
          7.9489889145 -13.487861633 0.467582196 -0.40695655346 -7.919397831 -0.10116969049
          1.1099439859 -11.292826653 -0.16389888525 -0.25574681163 -7.8574204445 0.40689778328
          12.857500076 -16.048952103 -0.29816642404 0 0 0
          -0.23139038682 -4.6298565865 -1.6959918867e-05 4.3890838623 -13.356693268 -2.7066562325e-06
          -0.071813620627 -0.93465745449 0.053428433836 10.78428936 -15.767020226 -0.26363030076
          -0.056546621025 -0.95574945211 0.022266114131 0.050046350807 -9.7180576324 -2.3004458853e-05
          8.7016944885 -15.472649574 -0.45542964339 -0.33835300803 -7.9400196075 -2.5646875656e-05
          1.1189938784 -11.307214737 -1.5686806364e-05 12.85964489 -16.065385818 2.6073601475e-05
          0 0 0 -0.12913478911 -1.9853999615 0.068814001977
          8.7074518204 -15.522367477 -0.22548560798 10.786064148 -15.783297539 1.9099501515e-05
          -0.28084173799 -6.0740213394 0.062665618956 2.5471122265 -11.347216606 0.37516072392
          -0.055682804435 -0.96156656742 -2.832219252e-06 -0.11889856309 -2.0162856579 0.035565398633
          6.087597847 -13.366758347 0.39420869946 -0.15779027343 -3.1803884506 -0.026956902817
          -0.30222499371 -6.143181324 0.039615303278 2.9924607277 -13.343641281 -0.35402852297
          -0.22868511081 -4.6134934425 -0.016046879813 4.416867733 -13.350255013 0.16971696913
          -0.30654016137 -6.2003002167 0.014111531898 2.9961526394 -13.342219353 -0.16904883087
          0.011015218683 -9.6862516403 0.16822399199 8.7110042572 -15.536495209 1.204221644e-05
          -0.11517421156 -2.0263476372 -6.7167279667e-06 6.6107444763 -15.308591843 -0.38248077035
          -0.40695616603 -7.9193906784 0.10111917555 1.109947443 -11.292815208 0.16386759281
          12.857502937 -16.048938751 0.2982185483 0 0 0
          -0.18165200949 -3.1865725517 0.077919594944 6.5961179733 -15.338861465 -0.19013784826
          10.784294128 -15.767006874 0.26366850734 -0.17586420476 -3.2237684727 0.040546394885
          -0.30257543921 -6.2205405235 -2.1243607989e-05 2.9952070713 -13.344296455 -8.6544669102e-06
          -0.056547887623 -0.95574986935 -0.022271800786 8.7074565887 -15.522354126 0.22550980747
          6.5735063553 -15.336043358 5.2731807045e-06 -0.17430594563 -3.2360186577 -1.0997551726e-05
          4.4280376434 -13.332789421 0.35534989834 0.30550223589 -11.52477169 -0.44489750266
          -0.11890122294 -2.0162863731 -0.035578932613 -0.22763188183 -4.5650906563 -0.029323332012
          -0.77327501774 -9.9731702805 -0.42617061734 0.32567834854 -11.504279137 -0.16817487776
          0.028273463249 -9.7104797363 0.40647357702 -0.73218178749 -9.9399318695 -0.21865749359
          -0.30654224753 -6.2002983093 -0.014153382741 2.9961564541 -13.342206955 0.16903164983
          1.1109032631 -11.269778252 0.33624649048 -0.39019101858 -7.825720787 0.0054078768007
          -0.23069244623 -4.5650529861 0.085331015289 4.8398156166 -15.296769142 -0.32710918784
          12.855443001 -15.99855423 0.5981348753 0 0 0
          10.781499863 -15.715666771 0.5288874507 -0.22762309015 -4.6061005592 0.044342640787
          0.32149124146 -11.527318001 -2.1800424292e-05 -0.40465924144 -7.9383039474 0.007836157456
          1.6681395769 -13.352198601 -0.39248663187 4.7872223854 -15.291798592 -0.16272701323
          -0.071818731725 -0.93465870619 -0.053435128182 -0.25691765547 -9.6999521255 -2.7554193366e-05
          6.5961232185 -15.338849068 0.19014850259 -0.17586749792 -3.2237691879 -0.040568239987
          1.6155086756 -13.319141388 -0.17682376504 -0.40002691746 -7.9934978485 0.0046832310036
          8.7017030716 -15.472622871 0.4554541409 -0.226466313 -4.6203870773 -1.5234341845e-05
          4.7034740448 -15.272797585 -1.3041436659e-06 -0.12914271653 -1.985401988 -0.068827733397
          1.5481752157 -13.281812668 -1.4446160094e-05 13.857662201 -18.119720459 -0.60141551495
          0 0 0 -0.36991104484 -7.9829778671 -2.516420318e-05
          13.857134819 -18.172185898 -0.30008122325 0 0 0
          0.32568132877 -11.504267693 0.16813141108 11.670732498 -17.83360672 -0.53039586544
          -0.30223196745 -6.1431803703 -0.039654821157 2.9924676418 -13.343618393 0.35401168466
          -0.096970811486 -0.90935832262 0.083660550416 -0.73218047619 -9.9399204254 0.21859937906
          11.670311928 -17.886953354 -0.26505973935 -0.071631766856 -0.93010652065 0.034957338125
          6.6107544899 -15.308566093 0.38249191642 13.85765934 -18.189451218 3.0090026485e-05
          -0.2276262939 -4.6061015129 -0.04437276721 9.4679698944 -17.577224731 -0.45774781704
          -0.15514154732 -1.9367243052 0.11181268841 4.7872271538 -15.291787148 0.16272456944
          0 0 0 3.4267144203 -15.298439026 -0.35003712773
          -0.27282869816 -6.1366934776 0.089457079768 -0.18166096509 -3.1865751743 -0.077941045165
          -0.13726624846 -1.9669532776 0.05703574419 9.4681529999 -17.633543015 -0.22902907431
          11.671087265 -17.904708862 2.2229725801e-05 1.6155127287 -13.319129944 0.17679491639
          -0.27057603002 -6.1789269447 0.047359153628 3.4196527004 -15.285717964 -0.17685353756
          -0.40002754331 -7.9934945107 -0.0047326162457 -0.069804392755 -0.93538415432 -2.3002328362e-06
          -0.53409153223 -11.803458214 -0.41588959098 9.4697637558 -17.653507233 1.4345298041e-05
          0.30550822616 -11.524746895 0.44485387206 -0.13121108711 -1.9762537479 -5.5926461755e-06
          -0.2693528235 -6.1918649673 -1.9237048036e-05 -0.48503506184 -11.812864304 -0.17690688372
          3.4064390659 -15.277843475 -7.4686108746e-06 -0.77327060699 -9.9731464386 0.42611262202
          13.85713768 -18.172170639 0.30014136434 7.2127628326 -17.351079941 -0.38189280033
          -0.42738896608 -9.833615303 0.031244382262 0 0 0
          -0.19444392622 -3.1175971031 0.12700743973 0.57846015692 -13.412722588 -0.33251023293
          -0.18502007425 -3.1530351639 0.065731629729 7.223279953 -17.403747559 -0.19228835404
          11.670315742 -17.886938095 0.26510417461 -0.41970431805 -9.9157934189 -0.034208972007
          0.61295312643 -13.425834656 -0.19091515243 -0.071632966399 -0.93010723591 -0.034962005913
          -0.23070114851 -4.5650558472 -0.085360080004 4.8398241997 -15.2967453 0.3271073401
          -0.46194142103 -11.778258324 -2.7360323656e-05 -0.40466293693 -7.9383001328 -0.0078828753904
          1.6681468487 -13.352175713 0.39245793223 7.2347259521 -17.421030045 6.8067429311e-06
          9.4681577682 -17.633527756 0.22905784845 -0.4711741209 -9.8867006302 -2.8197258871e-05
          -0.13726872206 -1.9669544697 -0.057047072798 -0.1814609468 -3.1641364098 -9.2832842711e-06
          -0.27057853341 -6.1789269447 -0.047397051007 3.419656992 -15.285705566 0.17683872581
          0.62000596523 -13.399767876 -2.0066643629e-05 2.1685137749 -15.257789612 -0.35389667749
          -0.28905630112 -7.8871588707 0.099110685289 2.1632773876 -15.254310608 -0.17827533185
          -0.29158997536 -7.9334330559 0.046626333147 13.85766983 -18.119689941 0.60147559643
          0 0 0 -0.4850346446 -11.812851906 0.17685166001
          -0.21904197335 -4.4797468185 0.13641536236 5.1769351959 -17.226573944 -0.31154477596
          -0.21503590047 -4.5161509514 0.070291474462 11.670742035 -17.833576202 0.53044033051
          -0.096975341439 -0.90935999155 -0.083666212857 5.1237020493 -17.218753815 -0.17918145657
          7.2232851982 -17.4037323 0.19230218232 -0.41970434785 -9.9157867432 0.034153785557
          -0.18502317369 -3.1530368328 -0.065750129521 0.61295557022 -13.425822258 0.1908749938
          2.1434950829 -15.24085331 -1.3110218788e-05 -0.29736295342 -7.9451398849 -2.2794081815e-05
          9.4679784775 -17.577194214 0.45777675509 -0.15514865518 -1.9367271662 -0.11182434857
          3.4267215729 -15.298416138 0.35002276301 -0.21584559977 -4.5255918503 -1.292711022e-05
          -0.27283591032 -6.1366963387 -0.089493341744 5.0048575401 -17.181957245 -4.966403111e-08
          14.862161636 -20.362276077 -0.60278993845 0 0 0
          -0.53408652544 -11.803434372 0.41583392024 2.1632807255 -15.254299164 0.17824919522
          0 0 0 12.563042641 -20.075883865 -0.53381466866
          -0.58540058136 -11.678490639 0.053493481129 -0.29159149528 -7.933432579 -0.046671126038
          -0.11679527164 -0.85027998686 0.11628556997 -0.22146829963 -13.658693314 -0.36216104031
          14.861226082 -20.413913727 -0.30116599798 7.2127718925 -17.351053238 0.38190725446
          12.561356544 -20.128154755 -0.26743459702 -0.081779301167 -0.87072062492 0.048637144268
          -0.42739140987 -9.8336076736 -0.031295277178 -0.5939232111 -11.801867485 -0.071590542793
          -0.19445209205 -3.1176011562 -0.12702576816 3.8615486622 -17.185495377 -0.34140202403
          -0.21503898501 -4.5161523819 -0.070317097008 0.57846587896 -13.412699699 0.33246991038
          -0.23026806116 -6.0276727676 0.13984847069 5.1237082481 -17.218742371 0.17918141186
          -0.22714865208 -13.664836884 -0.13454119861 -0.22981213033 -6.0626702309 0.074654065073
          3.8852643967 -17.182378769 -0.15495213866 10.253993988 -19.81243515 -0.46632421017
          14.860681534 -20.431100845 3.433756865e-05 -0.17288582027 -1.8308112621 0.15573836863
          0 0 0 10.251543999 -19.869604111 -0.233762905
          -0.14775744081 -1.8603597879 0.080739855766 12.561089516 -20.146287918 2.5401608582e-05
          0.85849422216 -15.187376976 -0.32401025295 -0.5091484189 -11.828836441 -2.8885469874e-05
          -0.21604143083 -13.664804459 -2.4916558687e-05 -0.31179052591 -9.7639884949 0.095571890473
          -0.079750046134 -0.87463366985 -1.8098736518e-06 0.84579151869 -15.201022148 -0.14097891748
          3.9028065205 -17.18330574 -6.773748737e-06 -0.3169490099 -9.8229093552 0.055690780282
          -0.22840052843 -6.0717215538 -1.6302263248e-05 2.1685204506 -15.257766724 0.35387068987
          10.252187729 -19.889907837 1.6481561033e-05 -0.28906151652 -7.887160778 -0.099153034389
          -0.13840048015 -1.868640542 -4.4892326514e-06 7.8983688354 -19.55651474 -0.38335186243
          14.861227989 -20.413894653 0.30123460293 0.82811361551 -15.214018822 -1.8474318495e-05
          -0.19883675873 -2.9761939049 0.17904675007 -0.21904997528 -4.4797520638 -0.1364403218
          -0.30735096335 -9.8492040634 -2.5744318918e-05 5.1769442558 -17.226551056 0.31154575944
          0 0 0 7.9125819206 -19.62560463 -0.19535687566
          -0.18559683859 -3.0115613937 0.090873345733 12.561360359 -20.128135681 0.26748535037
          -0.59392392635 -11.801860809 0.071532845497 -0.22714880109 -13.664824486 0.13449075818
          -0.081780351698 -0.87072151899 -0.048640858382 3.8852689266 -17.182369232 0.15493910015
          -0.22981479764 -6.0626716614 -0.074686288834 10.251547813 -19.869586945 0.23379589617
          7.9322619438 -19.655536652 7.8511466199e-06 2.6171691418 -17.173036575 -0.33420053124
          -0.21148568392 -7.7468709946 0.14073331654 -0.18302424252 -3.0224087238 -7.4785125435e-06
          -0.14775960147 -1.8603613377 -0.080748990178 -0.20941992104 -7.7824716568 0.077355198562
          0.8457942605 -15.201011658 0.14094217122 2.5982534885 -17.146661758 -0.14613796771