<?xml version="1.0"?>
<VTKFile type="UnstructuredGrid" version="0.1" byte_order="LittleEndian" header_type="UInt32" compressor="vtkZLibDataCompressor">
  <UnstructuredGrid>
    <Piece NumberOfPoints="4707" NumberOfCells="2892">
      <PointData>
      </PointData>
      <CellData>
        <DataArray type="Float32" Name="X_PHYS" format="ascii" RangeMin="-3.4028234664e+38" RangeMax="0">
          -3.4028234664e+38 0 0 0 0 0
          0 0 0 0 0 0
          0 0 0 0 0 0
          0 0 0 0 0 0
          0 0 0 0 0 0
          0 0 0 0 0 0
          0 0 0 0 0 0
          0 0 0 0 0 0
          0 0 0 0 0 0
          0 0 0 0 0 0
          0 0 0 0 0 0
          0 0 0 0 0 0
          0 0 0 0 0 0
          0 0 0 0 0 0
          0 0 0 0 0 0
          0 0 0 0 0 0
          0 0 0 0 0 0
          0 0 0 0 0 0
          0 0 0 0 0 0
          0 0 0 0 0 0
          0 0 0 0 0 0
          0 0 0 0 0 0
          0 0 0 0 0 0
          0 0 0 0 0 0
          0 0 0 0 0 0
          0 0 0 0 0 0
          0 0 0 0 0 0
          0 0 0 0 0 0
          0 0 0 0 0 0
          0 0 0 0 0 0
          0 0 0 0 0 0
          0 0 0 0 0 0
          0 0 0 0 0 0
          0 0 0 0 0 0
          0 0 0 0 0 0
          0 0 0 0 0 0
          0 0 0 0 0 0
          0 0 0 0 0 0
          0 0 0 0 0 0
          0 0 0 0 0 0
          0 0 0 0 0 0
          0 0 0 0 0 0
          0 0 0 0 0 0
          0 0 0 0 0 0
          0 0 0 0 0 0
          0 0 0 0 0 0
          0 0 0 0 0 0
          0 0 0 0 0 0
          0 0 0 0 0 0
          0 0 0 0 0 0
          0 0 0 0 0 0
          0 0 0 0 0 0
          0 0 0 0 0 0
          0 0 0 0 0 0
          0 0 0 0 0 0
          0 0 0 0 0 0
          0 0 0 0 0 0
          0 0 0 0 0 0
          0 0 0 0 0 0
          0 0 0 0 0 0
          0 0 0 0 0 0
          0 0 0 0 0 0
          0 0 0 0 0 0
          0 0 0 0 0 0
          0 0 0 0 0 0
          0 0 0 0 0 0
          0 0 0 0 0 0
          0 0 0 0 0 0
          0 0 0 0 0 0
          0 0 0 0 0 0
          0 0 0 0 0 0
          0 0 0 0 0 0
          0 0 0 0 0 0
          0 0 0 0 0 0
          0 0 0 0 0 0
          0 0 0 0 0 0
          0 0 0 0 0 0
          0 0 0 0 0 0
          0 0 0 0 0 0
          0 0 0 0 0 0
          0 0 0 0 0 0
          0 0 0 0 0 0
          0 0 0 0 0 0
          0 0 0 0 0 0
          0 0 0 0 0 0
          0 0 0 0 0 0
          0 0 0 0 0 0
          0 0 0 0 0 0
          0 0 0 0 0 0
          0 0 0 0 0 0
          0 0 0 0 0 0
          0 0 0 0 0 0
          0 0 0 0 0 0
          0 0 0 0 0 0
          0 0 0 0 0 0
          0 0 0 0 0 0
          0 0 0 0 0 0
          0 0 0 0 0 0
          0 0 0 0 0 0
          0 0 0 0 0 0
          0 0 0 0 0 0
          0 0 0 0 0 0
          0 0 0 0 0 0
          0 0 0 0 0 0
          0 0 0 0 0 0
          0 0 0 0 0 0
          0 0 0 0 0 0
          0 0 0 0 0 0
          0 0 0 0 0 0
          0 0 0 0 0 0
          0 0 0 0 0 0
          0 0 0 0 0 0
          0 0 0 0 0 0
          0 0 0 0 0 0
          0 0 0 0 0 0
          0 0 0 0 0 0
          0 0 0 0 0 0
          0 0 0 0 0 0
          0 0 0 0 0 0
          0 0 0 0 0 0
          0 0 0 0 0 0
          0 0 0 0 0 0
          0 0 0 0 0 0
          0 0 0 0 0 0
          0 0 0 0 0 0
          0 0 0 0 0 0
          0 0 0 0 0 0
          0 0 0 0 0 0
          0 0 0 0 0 0
          0 0 0 0 0 0
          0 0 0 0 0 0
          0 0 0 0 0 0
          0 0 0 0 0 0
          0 0 0 0 0 0
          0 0 0 0 0 0
          0 0 0 0 0 0
          0 0 0 0 0 0
          0 0 0 0 0 0
          0 0 0 0 0 0
          0 0 0 0 0 0
          0 0 0 0 0 0
          0 0 0 0 0 0
          0 0 0 0 0 0
          0 0 0 0 0 0
          0 0 0 0 0 0
          0 0 0 0 0 0
          0 0 0 0 0 0
          0 0 0 0 0 0
          0 0 0 0 0 0
          0 0 0 0 0 0
          0 0 0 0 0 0
          0 0 0 0 0 0
          0 0 0 0 0 0
          0 0 0 0 0 0
          0 0 0 0 0 0
          0 0 0 0 0 0
          0 0 0 0 0 0
          0 0 0 0 0 0
          0 0 0 0 0 0
          0 0 0 0 0 0
          0 0 0 0 0 0
          0 0 0 0 0 0
          0 0 0 0 0 0
          0 0 0 0 0 0
          0 0 0 0 0 0
          0 0 0 0 0 0
          0 0 0 0 0 0
          0 0 0 0 0 0
          0 0 0 0 0 0
          0 0 0 0 0 0
          0 0 0 0 0 0
          0 0 0 0 0 0
          0 0 0 0 0 0
          0 0 0 0 0 0
          0 0 0 0 0 0
          0 0 0 0 0 0
          0 0 0 0 0 0
          0 0 0 0 0 0
          0 0 0 0 0 0
          0 0 0 0 0 0
          0 0 0 0 0 0
          0 0 0 0 0 0
          0 0 0 0 0 0
          0 0 0 0 0 0
          0 0 0 0 0 0
          0 0 0 0 0 0
          0 0 0 0 0 0
          0 0 0 0 0 0
          0 0 0 0 0 0
          0 0 0 0 0 0
          0 0 0 0 0 0
          0 0 0 0 0 0
          0 0 0 0 0 0
          0 0 0 0 0 0
          0 0 0 0 0 0
          0 0 0 0 0 0
          0 0 0 0 0 0
          0 0 0 0 0 0
          0 0 0 0 0 0
          0 0 0 0 0 0
          0 0 0 0 0 0
          0 0 0 0 0 0
          0 0 0 0 0 0
          0 0 0 0 0 0
          0 0 0 0 0 0
          0 0 0 0 0 0
          0 0 0 0 0 0
          0 0 0 0 0 0
          0 0 0 0 0 0
          0 0 0 0 0 0
          0 0 0 0 0 0
          0 0 0 0 0 0
          0 0 0 0 0 0
          0 0 0 0 0 0
          0 0 0 0 0 0
          0 0 0 0 0 0
          0 0 0 0 0 0
          0 0 0 0 0 0
          0 0 0 0 0 0
          0 0 0 0 0 0
          0 0 0 0 0 0
          0 0 0 0 0 0
          0 0 0 0 0 0
          0 0 0 0 0 0
          0 0 0 0 0 0
          0 0 0 0 0 0
          0 0 0 0 0 0
          0 0 0 0 0 0
          0 0 0 0 0 0
          0 0 0 0 0 0
          0 0 0 0 0 0
          0 0 0 0 0 0
          0 0 0 0 0 0
          0 0 0 0 0 0
          0 0 0 0 0 0
          0 0 0 0 0 0
          0 0 0 0 0 0
          0 0 0 0 0 0
          0 0 0 0 0 0
          0 0 0 0 0 0
          0 0 0 0 0 0
          0 0 0 0 0 0
          0 0 0 0 0 0
          0 0 0 0 0 0
          0 0 0 0 0 0
          0 0 0 0 0 0
          0 0 0 0 0 0
          0 0 0 0 0 0
          0 0 0 0 0 0
          0 0 0 0 0 0
          0 0 0 0 0 0
          0 0 0 0 0 0
          0 0 0 0 0 0
          0 0 0 0 0 0
          0 0 0 0 0 0
          0 0 0 0 0 0
          0 0 0 0 0 0
          0 0 0 0 0 0
          0 0 0 0 0 0
          0 0 0 0 0 0
          0 0 0 0 0 0
          0 0 0 0 0 0
          0 0 0 0 0 0
          0 0 0 0 0 0
          0 0 0 0 0 0
          0 0 0 0 0 0
          0 0 0 0 0 0
          0 0 0 0 0 0
          0 0 0 0 0 0
          0 0 0 0 0 0
          0 0 0 0 0 0
          0 0 0 0 0 0
          0 0 0 0 0 0
          0 0 0 0 0 0
          0 0 0 0 0 0
          0 0 0 0 0 0
          0 0 0 0 0 0
          0 0 0 0 0 0
          0 0 0 0 0 0
          0 0 0 0 0 0
          0 0 0 0 0 0
          0 0 0 0 0 0
          0 0 0 0 0 0
          0 0 0 0 0 0
          0 0 0 0 0 0
          0 0 0 0 0 0
          0 0 0 0 0 0
          0 0 0 0 0 0
          0 0 0 0 0 0
          0 0 0 0 0 0
          0 0 0 0 0 0
          0 0 0 0 0 0
          0 0 0 0 0 0
          0 0 0 0 0 0
          0 0 0 0 0 0
          0 0 0 0 0 0
          0 0 0 0 0 0
          0 0 0 0 0 0
          0 0 0 0 0 0
          0 0 0 0 0 0
          0 0 0 0 0 0
          0 0 0 0 0 0
          0 0 0 0 0 0
          0 0 0 0 0 0
          0 0 0 0 0 0
          0 0 0 0 0 0
          0 0 0 0 0 0
          0 0 0 0 0 0
          0 0 0 0 0 0
          0 0 0 0 0 0
          0 0 0 0 0 0
          0 0 0 0 0 0
          0 0 0 0 0 0
          0 0 0 0 0 0
          0 0 0 0 0 0
          0 0 0 0 0 0
          0 0 0 0 0 0
          0 0 0 0 0 0
          0 0 0 0 0 0
          0 0 0 0 0 0
          0 0 0 0 0 0
          0 0 0 0 0 0
          0 0 0 0 0 0
          0 0 0 0 0 0
          0 0 0 0 0 0
          0 0 0 0 0 0
          0 0 0 0 0 0
          0 0 0 0 0 0
          0 0 0 0 0 0
          0 0 0 0 0 0
          0 0 0 0 0 0
          0 0 0 0 0 0
          0 0 0 0 0 0
          0 0 0 0 0 0
          0 0 0 0 0 0
          0 0 0 0 0 0
          0 0 0 0 0 0
          0 0 0 0 0 0
          0 0 0 0 0 0
          0 0 0 0 0 0
          0 0 0 0 0 0
          0 0 0 0 0 0
          0 0 0 0 0 0
          0 0 0 0 0 0
          0 0 0 0 0 0
          0 0 0 0 0 0
          0 0 0 0 0 0
          0 0 0 0 0 0
          0 0 0 0 0 0
          0 0 0 0 0 0
          0 0 0 0 0 0
          0 0 0 0 0 0
          0 0 0 0 0 0
          0 0 0 0 0 0
          0 0 0 0 0 0
          0 0 0 0 0 0
          0 0 0 0 0 0
          0 0 0 0 0 0
          0 0 0 0 0 0
          0 0 0 0 0 0
          0 0 0 0 0 0
          0 0 0 0 0 0
          0 0 0 0 0 0
          0 0 0 0 0 0
          0 0 0 0 0 0
          0 0 0 0 0 0
          0 0 0 0 0 0
          0 0 0 0 0 0
          0 0 0 0 0 0
          0 0 0 0 0 0
          0 0 0 0 0 0
          0 0 0 0 0 0
          0 0 0 0 0 0
          0 0 0 0 0 0
          0 0 0 0 0 0
          0 0 0 0 0 0
          0 0 0 0 0 0
          0 0 0 0 0 0
          0 0 0 0 0 0
          0 0 0 0 0 0
          0 0 0 0 0 0
          0 0 0 0 0 0
          0 0 0 0 0 0
          0 0 0 0 0 0
          0 0 0 0 0 0
          0 0 0 0 0 0
          0 0 0 0 0 0
          0 0 0 0 0 0
          0 0 0 0 0 0
          0 0 0 0 0 0
          0 0 0 0 0 0
          0 0 0 0 0 0
          0 0 0 0 0 0
          0 0 0 0 0 0
          0 0 0 0 0 0
          0 0 0 0 0 0
          0 0 0 0 0 0
          0 0 0 0 0 0
          0 0 0 0 0 0
          0 0 0 0 0 0
          0 0 0 0 0 0
          0 0 0 0 0 0
          0 0 0 0 0 0
          0 0 0 0 0 0
          0 0 0 0 0 0
          0 0 0 0 0 0
          0 0 0 0 0 0
          0 0 0 0 0 0
          0 0 0 0 0 0
          0 0 0 0 0 0
          0 0 0 0 0 0
          0 0 0 0 0 0
          0 0 0 0 0 0
          0 0 0 0 0 0
          0 0 0 0 0 0
          0 0 0 0 0 0
          0 0 0 0 0 0
          0 0 0 0 0 0
          0 0 0 0 0 0
          0 0 0 0 0 0
          0 0 0 0 0 0
          0 0 0 0 0 0
          0 0 0 0 0 0
          0 0 0 0 0 0
          0 0 0 0 0 0
          0 0 0 0 0 0
          0 0 0 0 0 0
          0 0 0 0 0 0
          0 0 0 0 0 0
          0 0 0 0 0 0
          0 0 0 0 0 0
          0 0 0 0 0 0
          0 0 0 0 0 0
          0 0 0 0 0 0
          0 0 0 0 0 0
          0 0 0 0 0 0
          0 0 0 0 0 0
          0 0 0 0 0 0
          0 0 0 0 0 0
          0 0 0 0 0 0
          0 0 0 0 0 0
          0 0 0 0 0 0
          0 0 0 0 0 0
          0 0 0 0 0 0
          0 0 0 0 0 0
          0 0 0 0 0 0
          0 0 0 0 0 0
          0 0 0 0 0 0
          0 0 0 0 0 0
          0 0 0 0 0 0
          0 0 0 0 0 0
          0 0 0 0 0 0
          0 0 0 0 0 0
          0 0 0 0 0 0
          0 0 0 0 0 0
          0 0 0 0 0 0
          0 0 0 0 0 0
          0 0 0 0 0 0
          0 0 0 0 0 0
          0 0 0 0 0 0
          0 0 0 0 0 0
          0 0 0 0 0 0
          0 0 0 0 0 0
          0 0 0 0 0 0
          0 0 0 0 0 0
          0 0 0 0 0 0
          0 0 0 0 0 0
          0 0 0 0 0 0
          0 0 0 0 0 0
          0 0 0 0 0 0
          0 0 0 0 0 0
          0 0 0 0 0 0
          0 0 0 0 0 0
          0 0 0 0 0 0
          0 0 0 0 0 0
          0 0 0 0 0 0
          0 0 0 0 0 0
          0 0 0 0 0 0
          0 0 0 0 0 0
          0 0 0 0 0 0
          0 0 0 0 0 0
          0 0 0 0 0 0
        </DataArray>
      </CellData>
      <Points>
        <DataArray type="Float32" Name="Points" NumberOfComponents="3" format="ascii" RangeMin="0" RangeMax="60.340699366">
          0 20 4 0 20 3
          1 20 4 0 19 4
          1 19 4 0 19 3
          1 20 3 1 19 3
          0 20 2 2 20 4
          0 18 4 2 20 3
          2 19 4 0 19 2
          0 18 3 1 20 2
          1 18 4 1 19 2
          2 19 3 1 18 3
          2 20 2 2 18 4
          0 18 2 2 19 2
          2 18 3 0 20 1
          3 20 4 0 17 4
          1 18 2 0 19 1
          0 17 3 1 20 1
          3 19 4 3 20 3
          1 17 4 1 19 1
          3 19 3 1 17 3
          2 18 2 2 20 1
          0 18 1 0 17 2
          2 17 4 3 18 4
          3 20 2 2 19 1
          3 18 3 1 18 1
          3 19 2 2 17 3
          1 17 2 0 20 0
          4 20 4 0 16 4
          4 19 4 2 18 1
          4 20 3 1 20 0
          0 19 0 0 16 3
          2 17 2 3 18 2
          1 16 4 4 19 3
          1 19 0 3 17 4
          0 17 1 3 20 1
          1 16 3 3 17 3
          3 19 1 1 17 1
          4 18 4 2 16 4
          4 20 2 2 20 0
          0 18 0 0 16 2
          4 18 3 2 19 0
          4 19 2 2 16 3
          1 18 0 1 16 2
          3 17 2 3 18 1
          2 17 1 4 18 2
          2 18 0 2 16 2
          4 17 4 4 20 1
          3 20 0 0 17 0
          5 20 4 0 16 1
          3 16 4 4 17 3
          5 20 3 5 19 4
          4 19 1 3 19 0
          1 17 0 3 16 3
          1 16 1 3 17 1
          5 19 3 4 18 1
          4 17 2 5 20 2
          2 15 4 2 16 1
          5 18 4 2 17 0
          3 18 0 3 16 2
          5 19 2 2 15 3
          5 18 3 4 20 0
          0 16 0 4 16 4
          4 19 0 2 15 2
          4 16 3 5 18 2
          1 16 0 4 17 1
          5 17 4 5 20 1
          3 15 4 3 17 0
          3 16 1 5 17 3
          3 15 3 5 19 1
          4 18 0 2 16 0
          6 20 4 4 16 2
          6 19 4 6 20 3
          6 19 3 5 17 2
          2 15 1 3 15 2
          5 18 1 6 18 4
          6 20 2 6 18 3
          6 19 2 4 17 0
          5 16 4 5 20 0
          4 15 4 4 16 1
          3 16 0 5 19 0
          4 15 3 5 16 3
          5 17 1 3 15 1
          6 18 2 6 17 4
          2 15 0 6 20 1
          5 18 0 5 16 2
          4 15 2 6 17 3
          6 19 1 4 16 0
          6 17 2 6 18 1
          7 20 4 7 20 3
          5 17 0 7 19 4
          3 15 0 5 15 4
          4 15 1 5 16 1
          7 19 3 5 15 3
          6 16 4 6 20 0
          6 19 0 7 20 2
          6 16 3 7 18 4
          6 17 1 7 19 2
          5 15 2 7 18 3
          6 18 0 6 16 2
          5 16 0 7 18 2
          4 15 0 7 20 1
          7 17 4 7 17 3
          7 19 1 5 15 1
          6 17 0 6 15 4
          6 16 1 5 14 4
          6 15 3 7 17 2
          7 18 1 5 14 3
          8 20 4 6 15 2
          7 16 4 8 19 4
          7 20 0 5 14 2
          8 20 3 7 16 3
          8 19 3 7 19 0
          5 15 0 7 17 1
          8 18 4 6 16 0
          8 20 2 7 16 2
          8 18 3 7 18 0
          8 19 2 6 15 1
          5 14 1 6 14 4
          8 18 2 6 14 3
          8 17 4 8 20 1
          7 16 1 8 17 3
          7 17 0 8 19 1
          7 15 4 7 15 3
          6 14 2 6 15 0
          8 18 1 5 14 0
          8 17 2 7 15 2
          8 16 4 8 20 0
          6 14 1 7 16 0
          8 19 0 8 16 3
          9 20 4 9 20 3
          9 19 4 8 17 1
          9 19 3 7 15 1
          8 18 0 8 16 2
          7 14 4 9 18 4
          9 20 2 7 14 3
          9 19 2 9 18 3
          6 14 0 7 14 2
          8 15 4 9 18 2
          8 17 0 8 16 1
          9 20 1 9 17 4
          8 15 3 7 15 0
          9 19 1 9 17 3
          8 15 2 7 14 1
          9 17 2 9 18 1
          8 16 0 9 16 4
          9 20 0 9 19 0
          8 15 1 9 16 3
          9 17 1 8 14 4
          10 20 4 10 19 4
          7 14 0 9 18 0
          8 14 3 10 20 3
          9 16 2 10 19 3
          10 18 4 8 14 2
          10 20 2 10 18 3
          10 19 2 8 15 0
          9 17 0 9 15 4
          9 16 1 9 15 3
          10 18 2 10 17 4
          8 14 1 10 20 1
          10 17 3 10 19 1
          9 15 2 10 18 1
          10 17 2 9 16 0
          8 13 4 8 13 3
          9 15 1 8 14 0
          10 16 4 10 20 0
          10 19 0 8 13 2
          9 14 4 10 16 3
          10 17 1 9 14 3
          10 18 0 10 16 2
          9 14 2 11 20 4
          11 20 3 8 13 1
          11 19 4 9 15 0
          11 19 3 10 17 0
          11 20 2 11 18 4
          10 16 1 10 15 4
          11 18 3 11 19 2
          9 14 1 10 15 3
          11 18 2 8 13 0
          10 15 2 11 20 1
          11 17 4 9 13 4
          11 17 3 11 19 1
          9 13 3 10 16 0
          9 14 0 11 17 2
          11 18 1 10 15 1
          9 13 2 10 14 4
          10 14 3 11 20 0
          11 16 4 11 19 0
          11 16 3 11 17 1
          9 13 1 10 14 2
          11 18 0 10 15 0
          11 16 2 12 20 4
          10 14 1 12 19 4
          12 20 3 11 17 0
          12 19 3 11 15 4
          9 13 0 11 16 1
          11 15 3 12 18 4
          12 20 2 12 18 3
          12 19 2 10 13 4
          10 13 3 11 15 2
          10 14 0 12 18 2
          12 17 4 12 20 1
          10 13 2 11 16 0
          12 17 3 12 19 1
          11 15 1 12 18 1
          12 17 2 11 14 4
          10 13 1 11 14 3
          12 16 4 12 20 0
          12 16 3 12 19 0
          11 14 2 12 17 1
          11 15 0 12 18 0
          10 12 4 12 16 2
          10 12 3 10 13 0
          11 14 1 10 12 2
          12 16 1 12 15 4
          12 17 0 13 20 4
          12 15 3 13 20 3
          11 13 4 13 19 4
          13 19 3 11 13 3
          13 20 2 10 12 1
          12 15 2 11 14 0
          13 18 4 13 18 3
          13 19 2 11 13 2
          12 16 0 13 18 2
          12 15 1 13 20 1
          13 17 4 13 17 3
          11 13 1 13 19 1
          10 12 0 12 14 4
          12 14 3 13 17 2
          13 18 1 12 14 2
          11 12 4 12 15 0
          13 16 4 13 20 0
          11 12 3 13 16 3
          11 13 0 13 19 0
          13 17 1 11 12 2
          13 16 2 12 14 1
          13 18 0 12 13 4
          11 12 1 13 16 1
          12 13 3 13 17 0
          13 15 4 13 15 3
          12 14 0 14 20 4
          14 19 4 12 13 2
          14 20 3 14 19 3
          13 15 2 14 18 4
          14 20 2 11 12 0
          14 18 3 14 19 2
          13 16 0 12 13 1
          11 11 4 11 11 3
          13 15 1 14 18 2
          14 20 1 14 17 4
          13 14 4 13 14 3
          14 17 3 14 19 1
          12 12 4 13 14 2
          14 17 2 14 18 1
          12 12 3 12 13 0
          13 15 0 11 11 1
          14 16 4 12 12 2
          14 20 0 14 19 0
          14 16 3 13 14 1
          14 17 1 14 16 2
          14 18 0 12 12 1
          11 11 0 13 13 4
          13 13 3 14 17 0
          14 16 1 13 14 0
          14 15 4 13 13 2
          14 15 3 12 12 0
          12 11 4 14 15 2
          15 20 4 12 11 3
          15 20 3 15 19 4
          13 13 1 15 19 3
          14 16 0 12 11 2
          15 18 4 15 20 2
          2 5 4 14 15 1
          2 5 3 15 18 3
          15 19 2 14 14 4
          6 6 4 14 14 3
          13 12 4 8 7 4
          2 5 2 6 6 3
          15 18 2 12 11 1
          13 13 0 15 20 1
          3 5 4 13 12 3
          8 7 3 15 17 4
          3 5 3 15 19 1
          15 17 3 14 14 2
          6 6 2 14 15 0
          13 12 2 2 5 1
          3 5 2 15 18 1
          15 17 2 12 11 0
          14 14 1 15 20 0
          4 5 4 6 6 1
          15 16 4 4 5 3
          11 9 4 13 12 1
          15 16 3 15 19 0
          8 7 1 11 9 3
          3 5 1 15 17 1
          10 8 4 12 10 4
          14 13 4 12 10 3
          15 18 0 4 5 2
          2 5 0 10 8 3
          15 16 2 7 6 4
          14 13 3 7 6 3
          14 14 0 6 6 0
          14 13 2 13 12 0
          8 7 0 7 6 2
          13 11 4 4 5 1
          5 5 4 3 5 0
          9 7 4 15 16 1
          15 15 4 15 17 0
          13 11 3 11 9 1
          5 5 3 9 7 3
          15 15 3 12 10 1
          10 8 1 14 13 1
          13 11 2 5 5 2
          9 7 2 7 6 1
          15 15 2 16 20 4
          0 4 4 16 20 3
          16 19 4 4 5 0
          0 4 3 1 4 4
          15 16 0 16 19 3
          11 9 0 1 4 3
          13 11 1 5 5 1
          9 7 1 15 15 1
          16 20 2 14 12 4
          16 18 4 10 8 0
          12 10 0 0 4 2
          2 4 4 8 6 4
          14 13 0 16 18 3
          8 6 3 14 12 3
          16 19 2 6 5 4
          15 14 4 7 6 0
          1 4 2 2 4 3
          6 5 3 15 14 3
          16 18 2 14 12 2
          2 4 2 8 6 2
          16 20 1 16 17 4
          6 5 2 12 9 4
          15 14 2 0 4 1
          3 4 4 11 8 4
          13 11 0 11 8 3
          16 17 3 16 19 1
          12 9 3 5 5 0
          9 7 0 15 15 0
          1 4 1 3 4 3
          16 18 1 14 12 1
          16 17 2 10 7 4
          2 4 1 3 4 2
          8 6 1 11 8 2
          13 10 4 6 5 1
          15 14 1 10 7 3
          13 10 3 16 16 4
          16 20 0 0 4 0
          4 4 4 16 19 0
          16 16 3 1 4 0
          10 7 2 4 4 3
          16 17 1 7 5 4
          3 4 1 12 9 1
          15 13 4 11 8 1
          7 5 3 15 13 3
          14 12 0 16 18 0
          16 16 2 2 4 0
          8 6 0 4 4 2
          14 11 4 6 5 0
          15 14 0 9 6 4
          9 6 3 14 11 3
          7 5 2 10 7 1
          15 13 2 13 10 1
          16 17 0 16 16 1
          12 9 0 9 6 2
          14 11 2 3 4 0
          11 8 0 5 4 4
          16 15 4 4 4 1
          16 15 3 5 4 3
          7 5 1 15 13 1
          10 7 0 5 4 2
          13 10 0 9 6 1
          14 11 1 16 16 0
          12 8 4 4 4 0
          12 8 3 8 5 4
          17 20 4 0 3 4
          15 12 4 17 20 3
          17 19 4 1 3 4
          8 5 3 16 15 1
          7 5 0 0 3 3
          5 4 1 15 12 3
          15 13 0 11 7 4
          13 9 4 17 19 3
          1 3 3 13 9 3
          11 7 3 6 4 4
          16 14 4 12 8 2
          17 20 2 14 11 0
          17 18 4 8 5 2
          15 12 2 16 14 3
          9 6 0 0 3 2
          2 3 4 6 4 3
          17 18 3 17 19 2
          1 3 2 2 3 3
          11 7 2 13 9 2
          10 6 4 14 10 4
          6 4 2 16 14 2
          10 6 3 17 18 2
          5 4 0 16 15 0
          2 3 2 12 8 1
          14 10 3 17 20 1
          17 17 4 3 3 4
          8 5 1 0 3 1
          15 12 1 17 17 3
          17 19 1 1 3 1
          3 3 3 11 7 1
          13 9 1 10 6 2
          14 10 2 16 14 1
          6 4 1 17 17 2
          17 18 1 3 3 2
          2 3 1 12 8 0
          16 13 4 8 5 0
          7 4 4 17 20 0
          0 3 0 15 12 0
          4 3 4 10 6 1
          14 10 1 17 16 4
          17 19 0 1 3 0
          16 13 3 9 5 4
          15 11 4 7 4 3
          4 3 3 11 7 0
          13 9 0 17 16 3
          17 17 1 3 3 1
          9 5 3 15 11 3
          6 4 0 16 14 0
          16 13 2 17 18 0
          7 4 2 2 3 0
          4 3 2 17 16 2
          9 5 2 15 11 2
          10 6 0 14 10 0
          12 7 4 13 8 4
          17 17 0 17 15 4
          12 7 3 3 3 0
          5 3 4 16 13 1
          7 4 1 4 3 1
          13 8 3 17 16 1
          17 15 3 5 3 3
          9 5 1 15 11 1
          12 7 2 11 6 4
          14 9 4 13 8 2
          5 3 2 11 6 3
          14 9 3 16 12 4
          8 4 4 16 13 0
          16 12 3 7 4 0
          11 6 2 4 3 0
          8 4 3 14 9 2
          17 16 0 12 7 1
          9 5 0 15 11 0
          13 8 1 17 15 1
          5 3 1 16 12 2
          18 20 4 0 2 4
          8 4 2 18 19 4
          10 5 4 17 14 4
          0 2 3 1 2 4
          6 3 4 18 20 3
          15 10 4 10 5 3
          18 19 3 11 6 1
          17 14 3 1 2 3
          6 3 3 14 9 1
          15 10 3 18 18 4
          0 2 2 2 2 4
          18 20 2 16 12 1
          12 7 0 10 5 2
          18 18 3 18 19 2
          17 14 2 1 2 2
          2 2 3 6 3 2
          8 4 1 15 10 2
          13 8 0 17 15 0
          5 3 0 18 18 2
          2 2 2 18 20 1
          18 17 4 11 6 0
          14 9 0 0 2 1
          3 2 4 18 17 3
          18 19 1 10 5 1
          17 14 1 1 2 1
          3 2 3 6 3 1
          15 10 1 16 12 0
          8 4 0 18 17 2
          16 11 4 18 18 1
          9 4 4 2 2 1
          3 2 2 16 11 3
          7 3 4 17 13 4
          9 4 3 13 7 4
          17 13 3 7 3 3
          13 7 3 18 20 0
          0 2 0 4 2 4
          12 6 4 14 8 4
          18 16 4 12 6 3
          18 19 0 10 5 0
          17 14 0 16 11 2
          1 2 0 6 3 0
          4 2 3 14 8 3
          15 10 0 9 4 2
          18 16 3 18 17 1
          3 2 1 17 13 2
          7 3 2 13 7 2
          18 18 0 12 6 2
          2 2 0 4 2 2
          14 8 2 18 16 2
          16 11 1 11 5 4
          15 9 4 9 4 1
          11 5 3 15 9 3
          17 13 1 7 3 1
          13 7 1 18 17 0
          12 6 1 3 2 0
          5 2 4 4 2 1
          14 8 1 18 16 1
          11 5 2 15 9 2
          5 2 3 17 12 4
          16 11 0 8 3 4
          9 4 0 5 2 2
          17 12 3 8 3 3
          7 3 0 17 13 0
          13 7 0 11 5 1
          15 9 1 16 10 4
          4 2 0 12 6 0
          14 8 0 10 4 4
          18 16 0 17 12 2
          16 10 3 8 3 2
          10 4 3 5 2 1
          16 10 2 6 2 4
          18 14 4 10 4 2
          19 20 4 0 1 4
          6 2 3 18 14 3
          17 12 1 1 1 4
          19 19 4 8 3 1
          11 5 0 15 9 0
          0 1 3 19 20 3
          19 19 3 1 1 3
          6 2 2 19 18 4
          16 10 1 5 2 0
          0 1 2 2 1 4
          13 6 4 14 7 4
          10 4 1 19 20 2
          19 18 3 19 19 2
          1 1 2 2 1 3
          13 6 3 14 7 3
          19 18 2 17 12 0
          8 3 0 12 5 4
          15 8 4 2 1 2
          6 2 1 13 6 2
          18 14 1 14 7 2
          3 1 4 17 11 4
          19 17 4 12 5 3
          0 1 1 9 3 4
          15 8 3 19 20 1
          19 19 1 1 1 1
          3 1 3 17 11 3
          9 3 3 19 17 3
          16 10 0 10 4 0
          12 5 2 7 2 4
          15 8 2 18 13 4
          19 18 1 3 1 2
          17 11 2 2 1 1
          7 2 3 9 3 2
          13 6 1 19 17 2
          14 7 1 18 13 3
          6 2 0 18 14 0
          19 16 4 19 20 0
          0 1 0 4 1 4
          16 9 4 7 2 2
          11 4 4 18 13 2
          19 16 3 1 1 0
          19 19 0 4 1 3
          12 5 1 16 9 3
          15 8 1 11 4 3
          3 1 1 17 11 1
          9 3 1 19 17 1
          19 16 2 19 18 0
          4 1 2 16 9 2
          2 1 0 13 6 0
          14 7 0 11 4 2
          7 2 1 18 13 1
          12 5 0 15 8 0
          19 16 1 3 1 0
          17 11 0 19 17 0
          19 15 4 4 1 1
          16 9 1 9 3 0
          5 1 4 11 4 1
          5 1 3 19 15 3
          8 2 4 18 12 4
          7 2 0 8 2 3
          10 3 4 17 10 4
          18 13 0 18 12 3
          5 1 2 17 10 3
          10 3 3 14 6 4
          8 2 2 18 12 2
          19 16 0 4 1 0
          16 9 0 14 6 3
          17 10 2 10 3 2
          11 4 0 13 5 4
          15 7 4 5 1 1
          13 5 3 15 7 3
          19 15 1 14 6 2
          19 14 4 6 1 4
          8 2 1 18 12 1
          19 14 3 6 1 3
          13 5 2 15 7 2
          17 10 1 10 3 1
          0 0 4 20 20 4
          12 4 4 16 8 4
          20 20 3 20 19 4
          6 1 2 16 8 3
          1 0 4 0 0 3
          12 4 3 14 6 1
          19 15 0 5 1 0
          1 0 3 20 19 3
          13 5 1 15 7 1
          20 20 2 20 18 4
          2 0 4 0 0 2
          8 2 0 12 4 2
          16 8 2 18 12 0
          20 18 3 1 0 2
          2 0 3 9 2 4
          20 19 2 10 3 0
          17 10 0 18 11 4
          19 14 1 6 1 1
          9 2 3 18 11 3
          20 18 2 14 6 0
          2 0 2 20 20 1
          20 17 4 3 0 4
          0 0 1 9 2 2
          12 4 1 16 8 1
          18 11 2 17 9 4
          13 5 0 15 7 0
          1 0 1 3 0 3
          7 1 4 11 3 4
          19 13 4 20 17 3
          20 19 1 11 3 3
          17 9 3 19 13 3
          7 1 3 20 18 1
          19 14 0 6 1 0
          2 0 1 3 0 2
          20 17 2 17 9 2
          11 3 2 19 13 2
          9 2 1 18 11 1
          7 1 2 0 0 0
          20 20 0 4 0 4
          12 4 0 16 8 0
          20 16 4 20 19 0
          1 0 0 4 0 3
          20 16 3 3 0 1
          20 17 1 11 3 1
          19 13 1 17 9 1
          7 1 1 20 18 0
          2 0 0 4 0 2
          20 16 2 15 6 4
          9 2 0 14 5 4
          18 11 0 15 6 3
          14 5 3 10 2 4
          18 10 4 20 17 0
          19 12 4 20 15 4
          3 0 0 5 0 4
          4 0 1 8 1 4
          16 7 4 20 16 1
          10 2 3 14 5 2
          13 4 4 18 10 3
          17 9 0 19 12 3
          8 1 3 7 1 0
          11 3 0 19 13 0
          5 0 3 16 7 3
          20 15 3 13 4 3
          10 2 2 18 10 2
          19 12 2 8 1 2
          5 0 2 16 7 2
          13 4 2 15 6 1
          14 5 1 4 0 0
          20 16 0 17 8 4
          12 3 4 10 2 1
          18 10 1 17 8 3
          19 12 1 8 1 1
          5 0 1 12 3 3
          16 7 1 20 15 1
          13 4 1 6 0 4
          20 14 4 15 6 0
          14 5 0 6 0 3
          12 3 2 17 8 2
          20 14 3 6 0 2
          10 2 0 18 10 0
          19 12 0 20 15 0
          5 0 0 21 20 4
          8 1 0 16 7 0
          13 4 0 21 19 4
          9 1 4 19 11 4
          12 3 1 17 8 1
          21 20 3 21 19 3
          9 1 3 19 11 3
          21 18 4 6 0 1
          11 2 4 20 14 1
          21 20 2 18 9 4
          21 18 3 21 19 2
          9 1 2 11 2 3
          19 11 2 18 9 3
          21 18 2 17 8 0
          12 3 0 7 0 4
          11 2 2 20 13 4
          18 9 2 21 17 4
          7 0 3 15 5 4
          20 13 3 21 20 1
          21 19 1 9 1 1
          21 17 3 15 5 3
          19 11 1 6 0 0
          14 4 4 16 6 4
          20 14 0 16 6 3
          7 0 2 14 4 3
          21 18 1 21 17 2
          15 5 2 11 2 1
          18 9 1 14 4 2
          21 20 0 21 16 4
          21 19 0 13 3 4
          9 1 0 19 11 0
          7 0 1 17 7 4
          20 13 1 21 16 3
          17 7 3 13 3 3
          21 17 1 15 5 1
          21 18 0 16 6 1
          11 2 0 14 4 1
          10 1 4 19 10 4
          21 16 2 18 9 0
          13 3 2 10 1 3
          19 10 3 8 0 4
          20 12 4 10 1 2
          7 0 0 8 0 3
          20 13 0 20 12 3
          19 10 2 21 15 4
          21 17 0 15 5 0
          21 16 1 21 15 3
          17 7 1 13 3 1
          14 4 0 16 6 0
          8 0 2 12 2 4
          20 12 2 18 8 4
          12 2 3 18 8 3
          10 1 1 19 10 1
          12 2 2 18 8 2
          21 16 0 8 0 1
          20 12 1 13 3 0
          17 7 0 21 15 1
          21 14 4 12 2 1
          10 1 0 19 10 0
          18 8 1 21 14 3
          8 0 0 20 12 0
          15 4 4 9 0 4
          16 5 4 20 11 4
          21 15 0 9 0 3
          11 1 4 19 9 4
          15 4 3 16 5 3
          20 11 3 11 1 3
          19 9 3 22 20 4
          12 2 0 18 8 0
          22 19 4 17 6 4
          9 0 2 22 20 3
          14 3 4 15 4 2
          16 5 2 20 11 2
          17 6 3 22 19 3
          11 1 2 14 3 3
          19 9 2 21 14 1
          22 18 4 22 20 2
          22 19 2 22 18 3
          14 3 2 21 13 4
          9 0 1 15 4 1
          16 5 1 20 11 1
          21 13 3 11 1 1
          19 9 1 22 18 2
          22 20 1 22 17 4
          21 14 0 13 2 4
          18 7 4 17 6 1
          22 19 1 13 2 3
          14 3 1 22 17 3
          18 7 3 22 18 1
          15 4 0 9 0 0
          13 2 2 22 17 2
          16 5 0 20 11 0