<?xml version="1.0"?>
<VTKFile type="UnstructuredGrid" version="0.1" byte_order="LittleEndian" header_type="UInt32" compressor="vtkZLibDataCompressor">
  <UnstructuredGrid>
    <Piece NumberOfPoints="6405" NumberOfCells="4800">
      <PointData>
        <DataArray type="Float32" Name="DISPLACEMENT" NumberOfComponents="3" ComponentName0="X-DISPLACEMENT" ComponentName1="Y-DISPLACEMENT" ComponentName2="Z-DISPLACEMENT" format="ascii" RangeMin="0" RangeMax="246.63039224">
          0 0 0 0 0 0
          1.9782711267 -1.2042165995 -0.91724795103 0 0 0
          1.2836108208 -0.70759540796 -0.71338611841 0 0 0
          1.8050601482 -1.3281825781 -0.36511939764 1.1163388491 -0.81019115448 -0.29100677371
          0 0 0 3.5536556244 -2.1966929436 -0.94398605824
          0 0 0 3.5016674995 -2.3439588547 -0.48748216033
          2.5788695812 -1.7963346243 -0.78816384077 0 0 0
          0 0 0 1.8112617731 -1.3707559109 1.358371378e-06
          0.93977349997 -0.47483512759 -0.55108523369 1.1118551493 -0.83118152618 6.8370775352e-07
          2.5232582092 -1.9140491486 -0.40248739719 0.80734282732 -0.57038795948 -0.22349831462
          3.4622581005 -2.3856260777 2.9761429232e-06 1.8832569122 -1.4612388611 -0.61882162094
          0 0 0 2.4887850285 -1.9531205893 1.6887772745e-06
          1.8265624046 -1.5704606771 -0.31739711761 0 0 0
          4.9923233986 -3.471186161 -0.88943773508 0 0 0
          0.80069810152 -0.58844155073 -3.3189557769e-08 0 0 0
          0 0 0 1.8050599098 -1.3281815052 0.36512207985
          3.7997448444 -3.0845077038 -0.75455224514 5.0063662529 -3.5793647766 -0.45368397236
          0.6635081172 -0.3080534339 -0.37371048331 1.1163393259 -0.81018984318 0.29100814462
          3.8116035461 -3.1864798069 -0.38458552957 0.58170598745 -0.41122108698 -0.15520550311
          1.7969259024 -1.5998812914 2.8428775067e-07 3.501667738 -2.3439564705 0.4874881804
          0 0 0 0 0 0
          1.2933723927 -1.2433028221 -0.43651589751 2.8438286781 -2.7776129246 -0.62151247263
          4.9938588142 -3.6187455654 4.9293189477e-06 2.5232594013 -1.914046526 0.40249085426
          2.836773634 -2.8746657372 -0.31558650732 0.80734330416 -0.57038646936 0.22349831462
          3.8028438091 -3.2206759453 3.0022758892e-06 1.236712575 -1.3499004841 -0.22403806448
          0.59131151438 -0.42588815093 -9.9200747172e-07 0 0 0
          6.3355703354 -4.9209866524 -0.80056786537 0 0 0
          4.9593372345 -4.5654139519 -0.69764250517 1.8265634775 -1.5704576969 0.31739777327
          6.3708128929 -5.0014505386 -0.40519821644 1.9782720804 -1.2042144537 0.91725069284
          0 0 0 0 0 0
          1.2170852423 -1.3767966032 -1.2698317278e-06 2.8272957802 -2.9047601223 9.5969426184e-07
          0.23243530095 -0.20782089233 -0.16618393362 4.9909057617 -4.6450567245 -0.35191759467
          1.2836123705 -0.70759278536 0.71338778734 1.9765421152 -2.5718054771 -0.48582473397
          0 0 0 5.0063667297 -3.5793609619 0.45369392633
          0.18336233497 -0.33419430256 -0.084148213267 1.9504256248 -2.6598403454 -0.24752761424
          3.8116052151 -3.1864757538 0.38459160924 0.58170670271 -0.41121938825 0.15520371497
          3.784971714 -4.2779107094 -0.59588366747 0.48226368427 -1.1124007702 -0.26895877719
          6.371843338 -5.0296401978 7.1413669502e-06 3.5536577702 -2.1966881752 0.94399231672
          0 0 0 0 0 0
          3.7990086079 -4.3558220863 -0.3005271554 2.5788724422 -1.7963292599 0.78816753626
          4.9956784248 -4.6727137566 4.6130562623e-06 0.42519176006 -1.2146909237 -0.14190107584
          0.93977439404 -0.47483199835 0.55108553171 0.20555903018 -0.36586380005 -2.2323940811e-06
          1.9407902956 -2.6881992817 -1.2541801198e-06 2.8367753029 -2.8746614456 0.31558850408
          1.2367137671 -1.3498973846 0.22403557599 3.7999405861 -4.3822894096 1.9663459625e-06
          1.883259058 -1.4612330198 0.61882245541 0.41767045856 -1.2449249029 -2.9105076464e-06
          2.6965732574 -4.0715780258 -0.49826410413 6.3708143234 -5.0014452934 0.40521258116
          4.9923262596 -3.4711785316 0.88944792747 0 0 0
          7.5725121498 -6.5101027489 -0.72471946478 0 0 0
          0 0 0 0.97846865654 -2.4289197922 -0.39433050156
          2.6954579353 -4.1459150314 -0.25177493691 7.607858181 -6.5703511238 -0.36418130994
          6.0504469872 -6.179189682 -0.64578586817 4.9909081459 -4.6450514793 0.351926893
          0.038761157542 -0.37323239446 -0.1817830205 0 0 0
          3.7997488976 -3.0844995975 0.75455856323 0.66350847483 -0.30804994702 0.37370896339
          0.94272726774 -2.5026273727 -0.19062851369 0.18336397409 -0.33419242501 0.0841441378
          -0.031614542007 -0.42299106717 -0.067480131984 1.9504272938 -2.6598358154 0.24752517045
          6.0826740265 -6.2415223122 -0.32356786728 3.7990107536 -4.3558168411 0.30053114891
          2.6929090023 -4.1727104187 -8.617291769e-07 7.6140532494 -6.591676712 9.6010717243e-06
          0.19093608856 -1.2900836468 -0.31741535664 0.42519384623 -1.214687705 0.14189524949
          0 0 0 4.7002549171 -5.9035558701 -0.5653629899
          1.293373704 -1.243296504 0.43651360273 2.843832016 -2.7776045799 0.621514678
          0.93232858181 -2.5290470123 -3.6959340832e-06 6.0910425186 -6.263176918 6.5121553234e-06
          -0.011220185086 -0.48525768518 -4.8479446377e-06 0.17842181027 -1.3296749592 -0.12915484607
          4.7197422981 -5.9666457176 -0.2836496532 6.3355746269 -4.9209766388 0.80058246851
          0 0 0 1.6426042318 -3.9082336426 -0.41424611211
          4.9593424797 -4.5654034615 0.69765198231 0.18390694261 -1.3765827417 -6.4385153564e-06
          1.6310437918 -3.9827787876 -0.20180100203 4.7248287201 -5.9884872437 3.2932180147e-06
          0.23243649304 -0.20781706274 0.16618044674 2.6954600811 -4.1459093094 0.25177326798
          3.4499235153 -5.6828474998 -0.48363900185 7.6078600883 -6.5703449249 0.36420059204
          0.42336171865 -2.4619488716 -0.29460638762 1.9765446186 -2.5717964172 0.485822469
          0 0 0 0.94272977114 -2.5026228428 0.19062115252
          3.45702672 -5.7475576401 -0.24291470647 -0.031611602753 -0.42298924923 0.067471057177
          0.43548223376 -2.5400090218 -0.1419686228 6.0826768875 -6.2415161133 0.3235809505
          3.784976244 -4.2778997421 0.5958878994 0.48226597905 -1.1123939753 0.26895308495
          8.7134866714 -8.1993045807 -0.66706484556 0 0 0
          1.6180859804 -4.0048570633 -3.9808032852e-06 7.0755257607 -7.8910098076 -0.60392928123
          8.7424259186 -8.2473201752 -0.33427426219 0 0 0
          0.06661837548 -0.61664623022 -0.12320619822 7.1023807526 -7.9416613579 -0.30164796114
          3.4568345547 -5.7691569328 -8.4055720606e-08 0.03507091105 -0.65676319599 -0.044425357133
          0.17842498422 -1.3296716213 0.12914223969 0.4263677597 -2.5649454594 -7.3306096056e-06
          4.7197451591 -5.9666395187 0.28365629911 5.5811667442 -7.6323885918 -0.53791606426
          -0.010455309413 -1.4977551699 -0.1241882965 8.7492933273 -8.2642774582 1.2303925359e-05
          0 0 0 -0.04464802146 -1.5557861328 -0.081568524241
          5.5995345116 -7.684317112 -0.26876750588 7.1104021072 -7.9592962265 8.6867630671e-06
          0.026416448876 -0.67050951719 -4.065291705e-06 2.6965768337 -4.0715665817 0.49826261401
          2.2740280628 -5.5020256042 -0.38901796937 7.5725178719 -6.5100908279 0.7247389555
          0 0 0 0.66278469563 -3.8157804012 -0.24105879664
          1.6310466528 -3.9827730656 0.20179305971 0.978472054 -2.428910017 0.39432328939
          6.050453186 -6.1791772842 0.64579916 0.038762457669 -0.37322673202 0.18177437782
          0.66149234772 -3.911359787 -0.13700073957 2.2688012123 -5.5729255676 -0.19642972946
          3.4570293427 -5.7475514412 0.24291458726 0.43548560143 -2.5400042534 0.14195406437
          5.6051259041 -7.7021145821 4.9226764531e-06 -0.048511788249 -1.5703427792 -7.8758248492e-06
          4.1921482086 -7.4325814247 -0.46980771422 -0.20183043182 -2.6454465389 -0.22434832156
          0.19093924761 -1.2900750637 0.31740280986 8.7424278259 -8.2473134995 0.33429890871
          4.7002606392 -5.9035429955 0.56536978483 0 0 0
          2.2659687996 -5.5927877426 -3.6640328744e-06 0.65861803293 -3.928794384 -7.4828039942e-06
          4.2000846863 -7.4838271141 -0.23404566944 7.1023836136 -7.9416542053 0.3016653657
          -0.23344920576 -2.7028942108 -0.096806518734 0.035071339458 -0.65676110983 0.044417534024
          1.6426085234 -3.9082214832 0.41423821449 4.202457428 -7.4998807907 1.0213367432e-06
          5.5995373726 -7.6843099594 0.26877740026 -0.044646292925 -1.5557829142 0.081552736461
          -0.22206701338 -2.7278652191 -1.1945893675e-05 9.777926445 -9.9643831253 -0.62697303295
          0 0 0 9.7993898392 -10.006202698 -0.31378129125
          3.4499282837 -5.6828341484 0.48363906145 8.0411348343 -9.6751070023 -0.57183235884
          0.4233660996 -2.4619379044 0.29459181428 0.93642455339 -5.3712749481 -0.26356893778
          0.016053188592 -0.77345347404 -0.058152403682 0.66149574518 -3.9113540649 0.13698574901
          2.2688040733 -5.5729188919 0.1964224726 0 0 0
          8.0615491867 -9.7192611694 -0.28506591916 0.9244197607 -5.4526176453 -0.14280158281
          -0.0074756192043 -0.80485767126 -0.023486407474 2.8605327606 -7.2945408821 -0.39550474286
          -0.033218245953 -4.016187191 -0.28481301665 8.7134933472 -8.1992902756 0.66708964109
          0 0 0 7.0755324364 -7.8909955025 0.603946805
          9.805519104 -10.02084446 1.5240466382e-05 -0.083852596581 -4.0352444649 -0.1120486781
          2.8510141373 -7.3381032944 -0.19920682907 0.066615894437 -0.61664271355 0.12319882214
          6.4137511253 -9.439540863 -0.51383930445 -0.040840692818 -1.7378326654 -0.090630315244
          0 0 0 4.2000875473 -7.4838199615 0.2340477854
          -0.23344506323 -2.702889204 0.096782892942 8.0678186417 -9.7343435287 1.1113383152e-05
          0.93446677923 -5.4756717682 -7.333411304e-06 6.4301409721 -9.4837875366 -0.25552850962
          -0.062202837318 -1.7808587551 -0.041402537376 -0.009652630426 -0.81247484684 -3.9357814785e-06
          5.5811729431 -7.6323742867 0.53792613745 -0.010456635617 -1.4977494478 0.12417443842
          2.8503825665 -7.3511385918 -2.9850020837e-06 -0.061590500176 -4.074075222 -1.2272310414e-05
          2.2740330696 -5.502011776 0.38901084661 6.434715271 -9.4985246658 6.821608622e-06
          -0.069640532136 -1.7977403402 -8.2701153588e-06 0.66278976202 -3.815767765 0.24104373157
          9.7993927002 -10.006195068 0.31381177902 4.884578228 -9.2778205872 -0.45783749223
          0 0 0 -0.089756190777 -2.8638470173 -0.1141326353
          4.8949623108 -9.3173685074 -0.22695784271 8.0615520477 -9.7192525864 0.28508815169
          -0.0074756904505 -0.80485612154 0.023478908464 0.92442315817 -5.4526104927 0.14278700948
          -0.10781930387 -2.916911602 -0.057934548706 4.1921539307 -7.4325666428 0.46981006861
          1.3760243654 -7.1773066521 -0.35723030567 2.8510174751 -7.3380961418 0.19920098782
          -0.20182538033 -2.6454341412 0.22432476282 -0.08384796232 -4.035238266 0.11202452332
          0.22323322296 -5.5755324364 -0.383998245 1.3466967344 -7.2087593079 -0.16975827515
          4.8970031738 -9.330573082 2.4273231247e-06 6.43014431 -9.4837799072 0.25554218888
          -0.062202863395 -1.7808558941 0.041386287659 0.19672606885 -5.5610966682 -0.14866420627
          -0.11852852255 -2.9296660423 -1.214715212e-05 10.791338921 -11.792517662 -0.60248553753
          0 0 0 -0.0073267817497 -0.86992150545 -0.022133732215
          1.3405206203 -7.2205791473 -6.9751490628e-06 3.4253060818 -9.1894140244 -0.41416701674
          8.9598588943 -11.514359474 -0.54814702272 9.7779331207 -9.9643669128 0.62700361013
          0 0 0 0 0 0
          0.20814833045 -5.5979232788 -1.2452632291e-05 -0.20763848722 -4.1636314392 -0.10898390412
          10.805780411 -11.833269119 -0.30111980438 3.4264266491 -9.2173938751 -0.20579840243
          8.9742307663 -11.556754112 -0.27275174856 8.0411424637 -9.6750907898 0.57185465097
          -0.017398187891 -0.8939191699 -0.0079813515767 0.93643003702 -5.3712611198 0.26355460286
          0.016049509868 -0.77345126867 0.058144848794 -0.22020678222 -4.2242188454 -0.11585959792
          4.8949656487 -9.317360878 0.22696278989 -0.10781872272 -2.9169075489 0.057910542935
          7.1986699104 -11.294153214 -0.48939204216 2.8605384827 -7.2945261002 0.39549919963
          -0.033212196082 -4.0161733627 0.2847892046 0 0 0
          -0.049524590373 -1.8708399534 -0.035682410002 10.810837746 -11.847239494 1.8376704247e-05
          -0.019430110231 -0.90098375082 -3.6464814457e-06 3.427680254 -9.2299089432 -2.0254105948e-06
          7.2115492821 -11.335024834 -0.24205864966 6.4137582779 -9.4395246506 0.51385313272
          8.9786167145 -11.570397377 1.3737163499e-05 -0.040844462812 -1.7378282547 0.090614847839
          -0.17472045124 -4.2328100204 -1.543878534e-05 -0.060948170722 -1.9061342478 -0.017072357237
          1.3467011452 -7.2087516785 0.16974449158 0.19673146307 -5.5610904694 0.14863988757
          0.55799072981 -7.306540966 -0.39498472214 7.2131295204 -11.34664917 8.9337845566e-06
          -0.065020553768 -1.9179816246 -7.9404408098e-06 0.57705366611 -7.3162922859 -0.17599456012
          5.527982235 -11.155416489 -0.43251854181 0 0 0
          -0.11884501576 -3.0280334949 -0.047754254192 10.805782318 -11.833259583 0.30115652084
          -0.017398759723 -0.89391827583 0.0079742697999 3.4264304638 -9.2173852921 0.20579451323
          5.5385379791 -11.190009117 -0.2120360136 4.8845844269 -9.2778043747 0.45784267783
          8.9742336273 -11.556745529 0.2727791965 2.0120005608 -9.1085309982 -0.41265884042
          -0.47346824408 -5.8346438408 -0.40389019251 -0.089758731425 -2.8638401031 0.11411073059
          -0.13082309067 -3.0718467236 -0.026566054672 -0.22020363808 -4.2242136002 0.11582972854
          1.9891556501 -9.1231908798 -0.19346885383 -0.4662489593 -5.8149452209 -0.17140476406
          0.5746602416 -7.3339104652 -1.2151012925e-05 1.3760316372 -7.1772918701 0.35721716285
          7.2115526199 -11.335016251 0.24207653105 0.22324043512 -5.5755176544 0.38397443295
          5.5356330872 -11.200749397 4.0260069909e-06 -0.060949359089 -1.9061324596 0.017056625336
          -0.13026931882 -3.0868322849 -1.2268512364e-05 1.9634445906 -9.1248922348 -6.4079094955e-06
          -0.14700604975 -5.7563495636 -1.6844507627e-05 -0.21370249987 -4.3885941505 -0.081333577633
          3.9741053581 -11.083220482 -0.39682018757 10.791345596 -11.792499542 0.60252213478
          0 0 0 0.57705932856 -7.3162851334 0.17597058415
          -0.0073311361484 -0.86992031336 0.022126210853 -0.21999008954 -4.4370298386 -0.040711395442
          3.4253125191 -9.1893978119 0.41416355968 8.9598665237 -11.514341354 0.54817438126
          3.9811756611 -11.109201431 -0.194258973 11.779802322 -13.686975479 -0.59097099304
          0 0 0 -0.20763765275 -4.1636228561 0.10895741731
          11.787956238 -13.730052948 -0.29488918185 -0.027938909829 -0.91650009155 0.0087351901457
          9.8514223099 -13.410713196 -0.53201848269 5.5385417938 -11.190000534 0.21204420924
          0 0 0 -0.13082398474 -3.0718443394 0.026542084292
          9.8602647781 -13.454974174 -0.26458802819 -0.027558106929 -0.93694198132 0.0040473211557
          1.9891613722 -9.1231832504 0.19345611334 -0.46624088287 -5.8149404526 0.17136959732
          7.198677063 -11.294136047 0.48940998316 -0.20692771673 -4.43435812 -1.6002049961e-05
          3.975325346 -11.120085716 -8.0686982074e-07 -0.049530476332 -1.8708376884 0.035667281598
          0.8432071209 -9.0876941681 -0.31386169791 -0.070688381791 -1.9462954998 0.0066136862151
          7.9525880814 -13.186659813 -0.46829167008 -0.23906159401 -7.5611071587 -0.384976089
          11.791543007 -13.744309425 2.1622870918e-05 0 0 0
          0.86167639494 -9.1297121048 -0.17529825866 9.8634243011 -13.468746185 1.6452795535e-05
          -0.028087675571 -0.94281148911 -3.296721161e-06 7.9603447914 -13.226881981 -0.2303172797
          -0.072705283761 -1.9767041206 0.004221573472 -0.23123082519 -7.5674819946 -0.1757889092
          0.55799895525 -7.3065247536 0.39496093988 0.86862885952 -9.1293973923 -1.1072455891e-05
          -0.26831799746 -5.9147138596 -0.079682700336 -0.21998989582 -4.4370265007 0.040680039674
          2.5878686905 -11.025815964 -0.37112540007 7.9600701332 -13.234498024 1.1162700503e-05
          5.5279893875 -11.155398369 0.43252700567 3.9811797142 -11.109193802 0.19425751269
          -0.20294837654 -7.5720396042 -1.7988972104e-05 -0.073114790022 -1.987121582 -7.4122622209e-06
          -0.11885025352 -3.0280299187 0.047731660306 11.787958145 -13.730042458 0.29493233562
          6.1327967644 -13.054956436 -0.39689081907 -0.26751881838 -5.9866013527 -0.06836399436
          -0.12340622395 -3.1265773773 0.002426665742 2.5885910988 -11.047458649 -0.18423473835
          2.0120098591 -9.1085147858 0.41264635324 -0.47346055508 -5.8346276283 0.40385484695
          0 0 0 -0.12675154209 -3.1641850471 0.0022564872634
          9.8602676392 -13.454964638 0.26462084055 -0.027558971196 -0.93694162369 -0.0040537957102
          6.123609066 -13.083731651 -0.19223763049 -0.30554774404 -5.9791121483 -1.9002829504e-05
          2.579076767 -11.053195953 -5.5535429055e-06 0.86168169975 -9.1297054291 0.17527610064
          6.1030955315 -13.084936142 5.8199066189e-06 -0.12713871896 -3.1752986908 -1.1691099644e-05
          7.9603476524 -13.226872444 0.23033958673 -0.07270706445 -1.9767034054 -0.0042363312095
          -0.23122422397 -7.5674757957 0.17575329542 -0.21370524168 -4.3885884285 0.081304073334
          3.9741127491 -11.083203316 0.39681914449 4.4899587631 -13.005204201 -0.35577210784
          11.779808044 -13.686954498 0.59101384878 0 0 0
          -0.17425517738 -4.4779458046 0.0021933661774 -0.027943585068 -0.91649985313 -0.0087423287332
          9.8514289856 -13.410693169 0.53205102682 -0.26751750708 -5.9865965843 0.068326540291
          2.588596344 -11.047451019 0.1842238307 4.4764370918 -13.025413513 -0.16669861972
          0.024967674166 -9.3537902832 -0.39579433203 -0.18074211478 -4.5236525536 -0.0011550283525
          -0.12675349414 -3.1641838551 -0.0022795496043 6.1236128807 -13.083724022 0.1922493279
          0.011114132591 -9.3349065781 -0.16042228043 1.1506114006 -10.947491646 -0.32191136479
          -0.40851306915 -7.5733799934 -0.056215766817 12.762098312 -15.664915085 -0.58788269758
          0 0 0 10.732613564 -15.386169434 -0.52476608753
          0.84321594238 -9.0876789093 0.31383913755 -0.070695072412 -1.946295023 -0.0066281915642
          7.9525947571 -13.186639786 0.46831390262 -0.41203537583 -7.6632843018 -0.11539664865
          1.1479258537 -10.975758553 -0.15848396719 -0.23905222118 -7.5610904694 0.38494110107
          12.765465736 -15.710690498 -0.2930932045 0 0 0
          -0.18570514023 -4.538151741 -1.5649840861e-05 4.4494953156 -13.033169746 5.2251232319e-07
          -0.049060899764 -0.92781251669 0.035883463919 10.736028671 -15.432879448 -0.26146033406
          -0.039061833173 -0.94673758745 0.015010429546 0.042460784316 -9.3622713089 -1.738444189e-05
          8.7060089111 -15.146518707 -0.45713531971 -0.33579576015 -7.6882772446 -2.1180163458e-05
          1.1553353071 -10.990186691 -1.0397886399e-05 12.767555237 -15.725592613 2.4802891858e-05
          0 0 0 -0.088070981205 -1.9627432823 0.045668844134
          8.7106971741 -15.190720558 -0.22585013509 10.737675667 -15.447520256 1.906804755e-05
          -0.26831802726 -5.9147057533 0.0796482265 2.587877512 -11.025799751 0.37111476064
          -0.038553226739 -0.95212841034 -2.9223433557e-06 -0.081863053143 -1.9909100533 0.023769972846
          6.1328039169 -13.054938316 0.39690274 -0.12341301143 -3.1265764236 -0.002448753221
          -0.23639421165 -6.0076007843 -0.0011586234905 3.0475292206 -12.998847961 -0.34751409292
          -0.18074356019 -4.5236506462 0.0011242772453 4.4764418602 -13.025405884 0.16669990122
          -0.2464864552 -6.0630784035 -0.0033150243107 3.04433465 -13.001703262 -0.16706503928
          0.011121561751 -9.3348999023 0.1603885293 8.7140512466 -15.201937675 1.334051376e-05
          -0.079653277993 -2.0000722408 -6.7157125159e-06 6.6910147667 -14.985210419 -0.38840469718
          -0.41203069687 -7.6632795334 0.11535536498 1.1479315758 -10.975749969 0.15846371651
          12.76546669 -15.710679054 0.29314261675 0 0 0
          -0.11979006976 -3.1404337883 0.05109218508 6.6593089104 -15.009739876 -0.19118000567
          10.736029625 -15.432868004 0.26149830222 -0.11778839678 -3.1754558086 0.026476802304
          -0.23977378011 -6.0842232704 -1.9042463464e-05 3.0381321907 -13.005488396 -4.5062788558e-06
          -0.039062812924 -0.94673770666 -0.015016223304 8.7106990814 -15.190710068 0.22587670386
          6.6219410896 -15.002828598 7.7862951002e-06 -0.11755610257 -3.1871283054 -1.0748385648e-05
          4.4899668694 -13.005187035 0.35577398539 0.31195598841 -11.183532715 -0.42291685939
          -0.081865079701 -1.9909101725 -0.023783421144 -0.17426079512 -4.4779438972 -0.0022223973647
          -0.77708816528 -9.6279067993 -0.42552900314 0.32410952449 -11.164651871 -0.16280181706
          0.02497888729 -9.3537740707 0.39576157928 -0.74241232872 -9.5979375839 -0.20317327976
          -0.24648667872 -6.0630760193 0.0032778012101 3.0443398952 -13.001696587 0.16705647111
          1.1506211758 -10.947475433 0.32189264894 -0.40850913525 -7.5733714104 0.056178282946
          -0.14572022855 -4.4889264107 0.052698951215 4.9368157387 -14.958210945 -0.33624973893
          12.762102127 -15.664892197 0.587931633 0 0 0
          10.732618332 -15.386147499 0.52480357885 -0.14700211585 -4.5288653374 0.027818260714
          0.32063913345 -11.188170433 -1.6186388166e-05 -0.3248437345 -7.7452697754 -0.034594282508
          1.6665682793 -12.984538078 -0.38136327267 4.8648228645 -14.954138756 -0.16590672731
          -0.049065496773 -0.92781305313 -0.035890039057 -0.31484237313 -9.4692420959 -2.0761935957e-05
          6.6593112946 -15.009730339 0.19119545817 -0.11779078841 -3.1754558086 -0.026498064399
          1.6156338453 -12.958538055 -0.17110301554 -0.32270047069 -7.8020949364 -0.017191870138
          8.7060127258 -15.146497726 0.45716157556 -0.14703856409 -4.5430083275 -1.4542854842e-05
          4.7667703629 -14.935125351 2.0080881313e-06 -0.088077791035 -1.9627441168 -0.045682251453
          1.5576117039 -12.931136131 -8.8776459961e-06 13.744391441 -17.743591309 -0.58801805973
          0 0 0 -0.30250322819 -7.7974028587 -2.1560446839e-05
          13.744789124 -17.790065765 -0.2933652997 0 0 0
          0.32411822677 -11.164645195 0.16277071834 11.612339973 -17.463335037 -0.5249093771
          -0.23639754951 -6.0075979233 0.0011236803839 3.0475382805 -12.998832703 0.34750661254
          -0.06875885278 -0.90669000149 0.062391318381 -0.74240338802 -9.5979318619 0.20312869549
          11.612602234 -17.510469437 -0.26223033667 -0.049429908395 -0.92553293705 0.025975881144
          6.6910204887 -14.985191345 0.38841998577 13.745280266 -17.80532074 2.7637926905e-05
          -0.14700420201 -4.5288653374 -0.02784688957 9.4723825455 -17.21222496 -0.46058136225
          -0.10368415713 -1.920481205 0.084753587842 4.8648276329 -14.954131126 0.16591091454
          0 0 0 3.4847714901 -14.958026886 -0.35407346487
          -0.1635080725 -6.0252299309 0.049297358841 -0.11979735643 -3.1404349804 -0.051112763584
          -0.089882902801 -1.9484249353 0.043103720993 9.4708013535 -17.261339188 -0.23034067452
          11.613521576 -17.526008606 2.1286277843e-05 1.6156436205 -12.958532333 0.17108570039
          -0.16598281264 -6.0674695969 0.026014212519 3.47164011 -14.949080467 -0.17735861242
          -0.32269912958 -7.8020915985 0.017149526626 -0.048075359315 -0.93060439825 -2.5523163458e-06
          -0.53229045868 -11.450572968 -0.4045624733 9.471493721 -17.279178619 1.5127278857e-05
          0.31196886301 -11.183515549 0.42288726568 -0.085240289569 -1.9574253559 -5.9395970311e-06
          -0.16622343659 -6.0815505981 -1.7863485482e-05 -0.48532542586 -11.455759048 -0.17322811484
          3.4559092522 -14.942269325 -2.9747777717e-06 -0.77707600594 -9.6278905869 0.42548516393
          13.74478817 -17.790054321 0.29342031479 7.287771225 -16.997476578 -0.39784300327
          -0.35882332921 -9.5885229111 -0.020456399769 0 0 0
          -0.11906395853 -3.0779554844 0.096955940127 0.59340250492 -13.050420761 -0.33550310135
          -0.11198934168 -3.1121909618 0.05008911714 7.286093235 -17.039953232 -0.20181199908
          11.612602234 -17.510456085 0.26227265596 -0.34492483735 -9.6686162949 -0.050927907228
          0.62322479486 -13.063529968 -0.18082894385 -0.049430880696 -0.92553341389 -0.025980973616
          -0.14572675526 -4.4889273643 -0.052726283669 4.9368238449 -14.958194733 0.33625468612
          -0.46314242482 -11.429798126 -2.1658426704e-05 -0.32484352589 -7.745265007 0.034554496408
          1.6665836573 -12.984525681 0.38134711981 7.2877950668 -17.052148819 9.3710514193e-06
          9.4708013535 -17.261327744 0.23037071526 -0.38838362694 -9.6543369293 -2.3323354981e-05
          -0.089884907007 -1.9484257698 -0.043115656823 -0.10961046815 -3.1231215 -9.5521590993e-06
          -0.16598413885 -6.06746912 -0.026049355045 3.4716460705 -14.949073792 0.17735293508
          0.6223834753 -13.042183876 -1.3384233171e-05 2.1998755932 -14.926754951 -0.35659813881
          -0.16175149381 -7.7391543388 0.047980781645 2.1801695824 -14.919897079 -0.17502228916
          -0.16663885117 -7.7855801582 0.020367352292 13.744392395 -17.743566513 0.58807229996
          0 0 0 -0.48531645536 -11.45575428 0.17318594456
          -0.11559133977 -4.4122080803 0.10263860971 5.2949414253 -16.887733459 -0.33905273676
          -0.11424028128 -4.4497323036 0.052502021194 11.612341881 -17.463310242 0.52495098114
          -0.068763114512 -0.90669113398 -0.062397208065 5.2293334007 -16.887031555 -0.1926279515
          7.286093235 -17.039943695 0.20183050632 -0.34492212534 -9.6686124802 0.050882268697
          -0.11199171841 -3.1121919155 -0.050108041614 0.62323302031 -13.063524246 0.18080280721
          2.1473042965 -14.901627541 -7.2870407166e-06 -0.17041836679 -7.7998642921 -2.0679781301e-05
          9.4723834991 -17.212200165 0.46061071754 -0.10369054973 -1.9204832315 -0.084765598178
          3.4847815037 -14.958011627 0.3540686667 -0.11422994733 -4.4610409737 -1.2875999346e-05
          -0.16351290047 -6.0252308846 -0.049330636859 5.1026515961 -16.853242874 3.7140969198e-06
          14.724657059 -19.928583145 -0.58762174845 0 0 0
          -0.53227603436 -11.450557709 0.40452128649 2.1801786423 -14.919892311 0.17500805855
          0 0 0 12.493012428 -19.648704529 -0.52747619152
          -0.55440402031 -11.416376114 0.015818120912 -0.16663908958 -7.7855796814 -0.020407827571
          -0.083613701165 -0.85111939907 0.090896226466 -0.23433920741 -13.293120384 -0.35314634442
          14.724305153 -19.973573685 -0.29359605908 7.2877721786 -16.997455597 0.39786103368
          12.491796494 -19.694160461 -0.26408976316 -0.055183716118 -0.87055915594 0.037446923554
          -0.35882014036 -9.5885162354 0.020413996652 -0.54002416134 -11.530075073 -0.093281082809
          -0.11907086521 -3.0779583454 -0.096974395216 3.922421217 -16.85477066 -0.3507296145
          -0.11424245685 -4.4497337341 -0.052527487278 0.59341567755 -13.05040741 0.33547616005
          -0.099795386195 -5.9355483055 0.098210476339 5.2293386459 -16.887023926 0.19263501465
          -0.2378668189 -13.303962708 -0.12829680741 -0.10214394331 -5.9742341042 0.052107021213
          3.9388539791 -16.859828949 -0.16130647063 10.25394249 -19.391893387 -0.46904233098
          14.723909378 -19.98853302 2.9772489142e-05 -0.1146376133 -1.8217380047 0.1243032068
          0 0 0 10.251306534 -19.440345764 -0.23556964099
          -0.092977143824 -1.8504122496 0.063578315079 12.491641998 -19.709911346 2.2736017854e-05
          0.88129395247 -14.86026001 -0.31289860606 -0.4340621829 -11.55634594 -2.3172067813e-05
          -0.23096196353 -13.301216125 -1.9207225705e-05 -0.17153914273 -9.5879602432 0.03530202806
          -0.052880976349 -0.87564665079 -2.2054196052e-06 0.86452525854 -14.877165794 -0.13876236975
          3.9513511658 -16.861598969 -1.8095483938e-06 -0.16972632706 -9.6475811005 0.0257584434
          -0.1015638262 -5.9848041534 -1.5996101865e-05 2.1998884678 -14.9267416 0.35658416152
          10.251424789 -19.458194733 1.6085579773e-05 -0.16175422072 -7.7391548157 -0.048018980771
          -0.085833877325 -1.8589735031 -5.1601518862e-06 7.9686026573 -19.146623611 -0.40370327234
          14.724301338 -19.973560333 0.2936552763 0.84171587229 -14.886447906 -1.1588473171e-05
          -0.11711009592 -2.9443845749 0.14634400606 -0.1155975908 -4.4122114182 -0.10266309232
          -0.15869756043 -9.6742305756 -2.2735857783e-05 5.2949495316 -16.887718201 0.33906027675
          0 0 0 7.9806547165 -19.201820374 -0.20550179482
          -0.10550990701 -2.9789073467 0.074056938291 12.491793633 -19.69414711 0.26413491368
          -0.54001933336 -11.530070305 0.093234784901 -0.23785696924 -13.303957939 0.12826010585
          -0.05518456921 -0.8705598712 -0.037451338023 3.938860178 -16.859823227 0.16130359471
          -0.10214544088 -5.9742360115 -0.052138194442 10.251304626 -19.440332413 0.23560145497
          7.9992656708 -19.226854324 9.9275175671e-06 2.6445982456 -16.847003937 -0.33054292202
          -0.061088778079 -7.6326351166 0.089153826237 -0.10124126077 -2.9900069237 -8.2599772213e-06
          -0.092978902161 -1.8504135609 -0.063588701189 -0.05908863619 -7.6741843224 0.050186805427
          0.86453437805 -14.877161026 0.13873973489 2.6219420433 -16.825044632 -0.14654883742