<?xml version="1.0"?>
<VTKFile type="UnstructuredGrid" version="0.1" byte_order="LittleEndian" header_type="UInt32" compressor="vtkZLibDataCompressor">
  <UnstructuredGrid>
    <Piece NumberOfPoints="6405" NumberOfCells="4800">
      <PointData>
        <DataArray type="Float32" Name="DISPLACEMENT" NumberOfComponents="3" ComponentName0="X-DISPLACEMENT" ComponentName1="Y-DISPLACEMENT" ComponentName2="Z-DISPLACEMENT" format="ascii" RangeMin="0" RangeMax="273.92825399">
          0 0 0 0 0 0
          2.1923160553 -1.3621308804 -1.0086177588 0 0 0
          1.3841910362 -0.81693226099 -0.76650643349 0 0 0
          2.0067667961 -1.5067561865 -0.39973005652 1.2047799826 -0.93539476395 -0.31207850575
          0 0 0 3.9203500748 -2.5425174236 -1.0248223543
          0 0 0 3.869453907 -2.7095110416 -0.5286154747
          2.7752313614 -2.1140277386 -0.84560865164 0 0 0
          0 0 0 2.01475811 -1.5539598465 3.4887236211e-07
          0.98798286915 -0.56583470106 -0.56711888313 1.2005661726 -0.95700603724 1.637920235e-07
          2.7202489376 -2.2465980053 -0.43123757839 0.85121512413 -0.66889446974 -0.23168681562
          3.8271393776 -2.7562272549 8.4172364723e-07 1.9489171505 -1.7827624083 -0.65817368031
          0 0 0 2.6846940517 -2.2900612354 4.9293942084e-07
          1.8888229132 -1.9032876492 -0.33755904436 0 0 0
          5.4724063873 -4.0546240807 -0.95085906982 0 0 0
          0.84756392241 -0.68522232771 -7.082397957e-08 0 0 0
          0 0 0 2.0067667961 -1.5067558289 0.39973077178
          4.0723757744 -3.6424267292 -0.8000241518 5.4943590164 -4.1744155884 -0.48474124074
          0.51880007982 -0.377856493 -0.38132196665 1.204780221 -0.93539446592 0.31207886338
          4.0907645226 -3.7558977604 -0.4080915153 0.39963456988 -0.4765470624 -0.16907672584
          1.8581434488 -1.9402372837 8.3949387886e-08 3.8694541454 -2.7095105648 0.52861720324
          0 0 0 0 0 0
          1.2313058376 -1.5896912813 -0.49578788877 2.954693079 -3.3060240746 -0.65028941631
          5.4812941551 -4.2175908089 1.4791258991e-06 2.7202494144 -2.24659729 0.43123862147
          2.9509317875 -3.4170935154 -0.33125439286 0.85121536255 -0.66889411211 0.23168674111
          4.0821890831 -3.793705225 9.580370488e-07 1.1855498552 -1.7061208487 -0.24478444457
          0.38916158676 -0.48908343911 -3.7644801409e-07 0 0 0
          6.8946204185 -5.7654180527 -0.83814650774 0 0 0
          5.2994008064 -5.3901104927 -0.73050278425 1.88882339 -1.9032868147 0.33755925298
          6.9384636879 -5.8492598534 -0.42442473769 2.1923165321 -1.3621302843 1.008618474
          0 0 0 0 0 0
          1.1626046896 -1.7412247658 -4.006512313e-07 2.9396288395 -3.4508774281 3.9378514316e-07
          0.34808009863 -0.45991280675 -0.31091967225 5.3374533653 -5.474167347 -0.36863729358
          1.3841915131 -0.81693154573 0.76650691032 1.9749658108 -3.0454301834 -0.47702005506
          0 0 0 5.4943594933 -4.1744146347 0.48474425077
          0.35576248169 -0.55610018969 -0.13569526374 1.950894475 -3.1630721092 -0.24280881882
          4.0907654762 -3.7558968067 0.40809345245 0.39963531494 -0.47654664516 0.16907608509
          3.9651927948 -5.0759530067 -0.6187132597 0.57819622755 -1.5367201567 -0.23505429924
          6.9395723343 -5.8787374496 2.2267320219e-06 3.9203510284 -2.5425159931 1.0248242617
          0 0 0 0 0 0
          3.9767990112 -5.1608519554 -0.31166255474 2.7752325535 -2.1140260696 0.84560978413
          5.3433861732 -5.5031576157 1.5417180066e-06 0.56517630816 -1.6868197918 -0.13090625405
          0.98798328638 -0.5658339262 0.56711894274 0.36620250344 -0.60212045908 -1.0393324601e-06
          1.935972333 -3.1921861172 -2.2655963505e-07 2.9509325027 -3.4170923233 0.33125519753
          1.1855510473 -1.706119895 0.24478363991 3.977296114 -5.1876440048 8.1351493009e-07
          1.9489182234 -1.7827606201 0.65817397833 0.55245441198 -1.7210034132 -1.0031379816e-06
          2.7269792557 -4.8396863937 -0.49655011296 6.9384646416 -5.8492584229 0.42442923784
          5.4724078178 -4.0546216965 0.95086216927 0 0 0
          8.1733884811 -7.6198182106 -0.74189007282 0 0 0
          0 0 0 0.79120850563 -2.8889055252 -0.26580807567
          2.7027020454 -4.9212007523 -0.25190398097 8.2156639099 -7.6750326157 -0.37327483296
          6.4370179176 -7.2835583687 -0.67072379589 5.337454319 -5.4741659164 0.36864042282
          -0.049856510013 -0.61814343929 -0.17988342047 0 0 0
          4.0723772049 -3.6424245834 0.80002617836 0.5188010335 -0.37785556912 0.38132160902
          0.75153231621 -3.0178411007 -0.15086205304 0.35576337576 -0.55609959364 0.13569328189
          -0.10181044787 -0.7099788785 -0.070882834494 1.9508953094 -3.1630706787 0.24280835688
          6.4740509987 -7.3414573669 -0.33587864041 3.9768002033 -5.1608505249 0.31166422367
          2.696801424 -4.9456377029 1.3889904338e-08 8.2221870422 -7.6952104568 3.0732726373e-06
          0.1249820888 -1.8084554672 -0.25804904103 0.56517708302 -1.6868187189 0.13090416789
          0 0 0 4.9186749458 -7.0158185959 -0.59926950932
          1.2313075066 -1.5896892548 0.4957870543 2.9546947479 -3.306021452 0.65029025078
          0.74443691969 -3.0482573509 -9.5176318382e-07 6.4837007523 -7.3620896339 2.2397234716e-06
          -0.11216563731 -0.73953086138 -2.0952325031e-06 0.025603100657 -1.8559292555 -0.093491323292
          4.9344906807 -7.0724711418 -0.29911035299 6.8946223259 -5.7654151917 0.8381510973
          0 0 0 1.2328429222 -4.6610660553 -0.39264628291
          5.2994027138 -5.3901076317 0.7305060029 0.042711108923 -1.9112840891 -2.2641013402e-06
          1.1873008013 -4.7362875938 -0.19784708321 4.9395580292 -7.0921311378 1.3699460624e-06
          0.34808111191 -0.45991116762 0.3109177351 2.7027032375 -4.9211993217 0.25190407038
          3.4943425655 -6.8418130875 -0.53183096647 8.2156648636 -7.6750311852 0.37328100204
          0.34871912003 -3.2055044174 -0.43276759982 1.9749674797 -3.0454273224 0.47701957822
          0 0 0 0.75153303146 -3.0178396702 0.15086016059
          3.4852712154 -6.8855671883 -0.26776963472 -0.10180941224 -0.70997822285 0.070878654718
          0.27680113912 -3.1886408329 -0.16296282411 6.4740519524 -7.3414554596 0.33588314056
          3.9651947021 -5.0759501457 0.61871498823 0.57819753885 -1.5367178917 0.23505200446
          9.3225793839 -9.5498914719 -0.67017799616 0 0 0
          1.1858187914 -4.7609443665 -8.2891790498e-07 7.4845919609 -9.2456674576 -0.6227311492
          9.3562545776 -9.5874900818 -0.33656615019 0 0 0
          0.1176559478 -0.86965966225 -0.12769879401 7.5154724121 -9.2863636017 -0.31083133817
          3.484992981 -6.9040584564 4.5016258809e-07 0.069800235331 -0.91551280022 -0.04562843591
          0.025604240596 -1.8559280634 0.093486912549 0.29316574335 -3.2395150661 -2.3053946734e-06
          4.9344916344 -7.0724692345 0.29911312461 5.8141231537 -9.005317688 -0.57404649258
          0.15193378925 -1.9728819132 -0.19546940923 9.3638019562 -9.601650238 4.0032696234e-06
          0 0 0 0.11741849035 -2.0235860348 -0.099682919681
          5.8345136642 -9.044962883 -0.28690460324 7.5245633125 -9.301325798 3.0303101539e-06
          0.065725140274 -0.93132770061 -1.2583836906e-06 2.726981163 -4.8396835327 0.49655035138
          1.9848986864 -6.683303833 -0.52812904119 8.1733903885 -7.6198148727 0.74189633131
          0 0 0 0.71547365189 -4.872815609 -0.53280049562
          1.1873021126 -4.7362861633 0.19784556329 0.79120987654 -2.8889024258 0.26580622792
          6.4370203018 -7.2835550308 0.67072838545 -0.049855135381 -0.61814123392 0.17987924814
          0.71835672855 -4.8527507782 -0.22119322419 1.9533618689 -6.7055029869 -0.24434301257
          3.4852724075 -6.8855657578 0.2677705884 0.27680268884 -3.1886394024 0.16295847297
          5.840306282 -9.0599927902 2.0409340777e-06 0.099579781294 -2.0390644073 -2.1183591343e-06
          4.2460484505 -8.8407421112 -0.53468865156 0.21235740185 -3.3538963795 -0.24851222336
          0.12498389184 -1.8084527254 0.2580448091 9.3562555313 -9.5874881744 0.33657419682
          4.9186768532 -7.015815258 0.59927237034 0 0 0
          1.9348558187 -6.717569828 -5.1037437743e-07 0.71848064661 -4.8845539093 -2.084957714e-06
          4.2587976456 -8.8766422272 -0.26741066575 7.5154738426 -9.2863616943 0.31083741784
          0.17616289854 -3.4064748287 -0.16409383714 0.069800376892 -0.91551208496 0.045625947416
          1.2328453064 -4.6610631943 0.39264512062 4.2611727715 -8.8920192719 1.0280210745e-06
          5.8345150948 -9.0449609756 0.28690871596 0.11741869152 -2.0235850811 0.099678702652
          0.19917733967 -3.3983438015 -2.7218318337e-06 10.378231049 -11.512074471 -0.6246111393
          0 0 0 10.402065277 -11.542926788 -0.31319576502
          3.4943449497 -6.8418092728 0.53183203936 8.4628324509 -11.226146698 -0.5852881074
          0.34872144461 -3.2055010796 0.43276366591 1.1632361412 -6.7017688751 -0.45134538412
          0.075687862933 -0.97046369314 -0.077823027968 0.71835869551 -4.8527493477 0.22118930519
          1.9533641338 -6.7055015564 0.2443420738 0 0 0
          8.4860754013 -11.260157585 -0.29169288278 1.2082363367 -6.7545623779 -0.22164866328
          0.048219095916 -1.0049775839 -0.031359188259 2.8574414253 -8.6983776093 -0.50038033724
          0.19789336622 -5.1849150658 -0.51607656479 9.3225812912 -9.5498876572 0.67018604279
          0 0 0 7.4845943451 -9.2456636429 0.62273734808
          10.409376144 -11.5545187 4.9934737945e-06 0.24045085907 -5.1851911545 -0.24036492407
          2.8481318951 -8.7365779877 -0.24416561425 0.11765526235 -0.86965882778 0.12769660354
          6.6624937057 -10.997969627 -0.54088681936 0.10532744974 -2.1202459335 -0.11541873217
          0 0 0 4.2587990761 -8.8766403198 0.26741272211
          0.17616316676 -3.406473875 0.16408853233 8.4931545258 -11.272149086 3.8837456486e-06
          1.2010098696 -6.7637929916 -1.5570894902e-06 6.683804512 -11.032650948 -0.26979377866
          0.077940642834 -2.1737346649 -0.059404633939 0.045092847198 -1.0152204037 -9.7409611044e-07
          5.8141260147 -9.0053138733 0.5740506053 0.15193335712 -1.9728804827 0.19546546042
          2.82239604 -8.74152565 2.1514066972e-08 0.25687861443 -5.1770324707 -3.3977905787e-06
          1.9849021435 -6.6833004951 0.52812838554 6.6889491081 -11.044694901 2.7711118946e-06
          0.073208257556 -2.1875939369 -1.9232356863e-06 0.71547651291 -4.8728122711 0.53279668093
          10.402067184 -11.542924881 0.3132057488 4.9959993362 -10.834377289 -0.49819099903
          0 0 0 0.10610411316 -3.5214011669 -0.15427462757
          5.0141253471 -10.868852615 -0.24756193161 8.486076355 -11.260155678 0.29170066118
          0.048219017684 -1.004977107 0.031357355416 1.2082380056 -6.7545604706 0.22164550424
          0.089354336262 -3.5889985561 -0.080244250596 4.2460508347 -8.8407382965 0.53469079733
          1.5283572674 -8.6132230759 -0.33958548307 2.8481340408 -8.7365751266 0.24416556954
          0.21235702932 -3.353894949 0.24850776792 0.24045218527 -5.185189724 0.24035824835
          0.52359938622 -7.0319919586 -0.46436622739 1.5400531292 -8.6837892532 -0.20274779201
          5.0149626732 -10.879743576 1.6532916334e-06 6.6838059425 -11.03264904 0.26979932189
          0.077940441668 -2.1737341881 0.05940085277 0.50611954927 -7.0444788933 -0.1941704452
          0.080358065665 -3.6049826145 -2.7615074032e-06 11.385336876 -13.497108459 -0.60265308619
          0 0 0 0.024341298267 -1.019220233 -0.028796898201
          1.5543177128 -8.6893568039 -1.0040481584e-06 3.5076551437 -10.722312927 -0.43877506256
          9.3949432373 -13.217622757 -0.55891263485 10.37823391 -11.512069702 0.62462121248
          0 0 0 0 0 0
          0.54565995932 -7.0628356934 -3.0348994642e-06 0.17719206214 -5.1694245338 -0.1383562088
          11.399589539 -13.529989243 -0.30144312978 3.5163536072 -10.754087448 -0.22662825882
          9.4105262756 -13.253087997 -0.27802404761 8.4628353119 -11.22614193 0.58529597521
          0.013578347862 -1.0520325899 -0.011502534151 1.1632390022 -6.7017650604 0.45134186745
          0.07568693161 -0.97046333551 0.077821157873 0.14914102852 -5.2672095299 -0.094496183097
          5.0141267776 -10.868850708 0.24756522477 0.089354336262 -3.5889978409 0.080238826573
          7.4681911469 -12.997002602 -0.50944888592 2.8574450016 -8.6983737946 0.50038003922
          0.19789546728 -5.1849107742 0.51606959105 0 0 0
          0.023363918066 -2.2098248005 -0.0414269045 11.405708313 -13.541628838 6.0252446019e-06
          0.012498535216 -1.0604932308 -7.9127443087e-07 3.516505003 -10.760811806 5.3471245565e-07
          7.4845018387 -13.030622482 -0.25217595696 6.6624965668 -10.997964859 0.5408924222
          9.4158630371 -13.264738083 4.7779276429e-06 0.10532628 -2.1202454567 0.11541517079
          0.1377004534 -5.2712235451 -3.3809642446e-06 0.014993084595 -2.2591576576 -0.020225675777
          1.5400543213 -8.6837873459 0.20274557173 0.50612056255 -7.0444769859 0.19416438043
          0.85556453466 -8.9653329849 -0.50957036018 7.486831665 -13.038790703 3.5307382404e-06
          0.010742459446 -2.2746169567 -1.7139677766e-06 0.82856279612 -8.9191179276 -0.20863963664
          5.6687841415 -12.876804352 -0.45694154501 0 0 0
          0.021945254877 -3.6026587486 -0.040763963014 11.399590492 -13.529986382 0.30145519972
          0.01357817091 -1.0520324707 0.011500989087 3.5163550377 -10.754085541 0.2266292721
          5.6811103821 -12.903594971 -0.22288052738 4.9960021973 -10.83437252 0.49819427729
          9.410528183 -13.253085136 0.27803361416 1.8932995796 -10.602042198 -0.40656322241
          0.25717097521 -6.9612336159 -0.14654693007 0.10610350221 -3.5213997364 0.15426942706
          0.014425642788 -3.6677963734 -0.020398762077 0.14914114773 -5.2672080994 0.094489425421
          1.8905727863 -10.627396584 -0.19872486591 0.20240581036 -7.0782437325 -0.13303567469
          0.87675559521 -8.9678592682 -2.7953649351e-06 1.5283596516 -8.6132192612 0.33958294988
          7.4845032692 -13.030620575 0.25218304992 0.52360141277 -7.0319871902 0.46436011791
          5.6766290665 -12.910429001 2.2796868961e-06 0.014992728829 -2.2591574192 0.020222265273
          0.0097152860835 -3.6876218319 -2.6111183615e-06 1.9061111212 -10.63917923 -7.7996412529e-07
          0.21002718806 -7.078397274 -3.7440072447e-06 0.030722828582 -5.205830574 -0.034374900162
          4.0477442741 -12.873165131 -0.43299818039 11.385339737 -13.497102737 0.60266518593
          0 0 0 0.82856398821 -8.9191160202 0.20863431692
          0.024340255186 -1.0192201138 0.028795234859 0.019066285342 -5.2849187851 -0.016422988847
          3.5076577663 -10.722308159 0.43877586722 9.3949460983 -13.217617035 0.5589222908
          4.0589165688 -12.877728462 -0.20759564638 12.379832268 -15.525179863 -0.59836864471
          0 0 0 0.17719173431 -5.1694226265 0.13835006952
          12.386195183 -15.564804077 -0.2985022366 -0.027088083327 -1.0372624397 0.018120903522
          10.304887772 -15.243512154 -0.54377132654 5.6811118126 -12.903593063 0.22288510203
          0 0 0 0.01442524977 -3.6677958965 0.02039360255
          10.312653542 -15.284912109 -0.27057403326 -0.022159092128 -1.0679363012 0.0078239552677
          1.8905739784 -10.627393723 0.19872334599 0.20240627229 -7.0782423019 0.13302819431
          7.4681940079 -12.996997833 0.50945597887 0.014035850763 -5.3124518394 -3.3786598124e-06
          4.0620379448 -12.88094902 9.5749578577e-07 0.023362521082 -2.2098243237 0.041423562914
          1.2186146975 -10.907065392 -0.56735002995 -0.050561964512 -2.2365515232 0.024512944743
          8.2405281067 -15.013147354 -0.48407894373 0.17877608538 -9.2964220047 -0.57338964939
          12.39066124 -15.57798481 7.0954852163e-06 0 0 0
          1.2500705719 -10.870845795 -0.21955347061 10.315817833 -15.297924995 5.7046909205e-06
          -0.022158179432 -1.0759615898 -6.6808070187e-07 8.2543764114 -15.051049232 -0.23808225989
          -0.047054190189 -2.2810292244 0.013324145228 0.20796336234 -9.2302055359 -0.30040034652
          0.85556662083 -8.9653282166 0.50956523418 1.2429529428 -10.890712738 -2.450797183e-06
          0.036566812545 -7.0422258377 -0.06426935643 0.019065992907 -5.2849183083 0.016416378319
          2.6318695545 -12.909794807 -0.4800542295 8.2588739395 -15.059182167 4.3119061957e-06
          5.6687870026 -12.87679863 0.45694613457 4.0589179993 -12.877726555 0.20759761333
          0.24601988494 -9.2197055817 -4.0683139559e-06 -0.046422172338 -2.2955431938 -1.5260452528e-06
          0.02194387652 -3.6026580334 0.040759049356 12.386196136 -15.564801216 0.29851645231
          6.2485895157 -14.89716053 -0.42135855556 0.027489405125 -7.1263194084 -0.032014422119
          -0.06896751374 -3.6225767136 0.032425727695 2.5952305794 -12.880822182 -0.21409037709
          1.8933018446 -10.60203743 0.40656194091 0.25717124343 -6.9612307549 0.14654015005
          0 0 0 -0.066390477121 -3.6759741306 0.018171643838
          10.312654495 -15.284910202 0.27058547735 -0.022159321234 -1.067936182 -0.0078252805397
          6.2392687798 -14.914716721 -0.2091371417 0.02140939422 -7.1527380943 -3.9390952224e-06
          2.5429065228 -12.85410881 -3.3025952462e-07 1.2500720024 -10.870842934 0.21954895556
          6.2146253586 -14.908705711 2.9401949178e-06 -0.067086160183 -3.6948449612 -2.4174378268e-06
          8.2543773651 -15.051046371 0.23809088767 -0.047054670751 -2.281028986 -0.013327205554
          0.2079642266 -9.2302026749 0.30039232969 0.030721748248 -5.2058291435 0.034368630499
          4.0477466583 -12.873159409 0.43300032616 4.5260834694 -14.908139229 -0.39244830608
          12.379836082 -15.525174141 0.59838283062 0 0 0
          -0.077559612691 -5.2138524055 0.040536183864 -0.027089139447 -1.0372624397 -0.018122417852
          10.304891586 -15.243506432 0.54378283024 0.027489224449 -7.1263184547 0.03200666979
          2.5952327251 -12.880820274 0.21408975124 4.5172204971 -14.918101311 -0.19138759375
          0.48276013136 -11.278356552 -0.5638115406 -0.075655207038 -5.2722659111 0.022888544947
          -0.066391058266 -3.6759738922 -0.018176428974 6.2392702103 -14.91471386 0.20914304256
          0.5380577445 -11.260733604 -0.25876870751 1.5791158676 -13.005493164 -0.41055893898
          0.12073562294 -9.0358572006 -0.04132540524 13.383008957 -17.629392624 -0.60383635759
          0 0 0 11.208838463 -17.342166901 -0.53971683979
          1.2186170816 -10.907059669 0.56734549999 -0.050563529134 -2.2365515232 -0.024516005069
          8.2405309677 -15.013142586 0.48408764601 0.095982372761 -9.1578359604 -0.071434751153
          1.6055966616 -13.01485157 -0.22803290188 0.1787776202 -9.2964172363 0.57338172197
          13.38356781 -17.675964355 -0.30097085238 0 0 0
          -0.077480301261 -5.294459343 -3.2156165162e-06 4.487493515 -14.926242828 1.6055199694e-06
          -0.075500443578 -1.0243219137 0.063374973834 11.210869789 -17.389930725 -0.26888978481
          -0.056767757982 -1.054006815 0.026434468105 0.55282872915 -11.231735229 -3.935697805e-06
          9.0195846558 -17.092639923 -0.47056689858 0.097606673837 -9.164563179 -4.244763204e-06
          1.6092152596 -12.997901917 -1.535674528e-06 13.385892868 -17.691167831 8.2157512225e-06
          0 0 0 -0.12195725739 -2.2083134651 0.08351521939
          9.025888443 -17.140007019 -0.23345153034 11.212737083 -17.404960632 6.6657107709e-06
          0.036566156894 -7.0422244072 0.064262002707 2.6318731308 -12.909790039 0.48005357385
          -0.05558154732 -1.0614675283 -5.6707852991e-07 -0.10892417282 -2.2499496937 0.042956385761
          6.2485923767 -14.897154808 0.42136448622 -0.068969197571 -3.6225767136 -0.032430376858
          -0.063225843012 -6.997918129 0.055098325014 3.1782078743 -14.936262131 -0.40921643376
          -0.075655788183 -5.2722654343 -0.022894900292 4.5172219276 -14.91809845 0.1913907975
          -0.065701819956 -7.067258358 0.02707445994 3.1837780476 -14.93593502 -0.20511674881
          0.53805834055 -11.260731697 0.25876116753 9.0286617279 -17.153982162 5.1062593229e-06
          -0.10438350588 -2.2633788586 -1.3504743492e-06 6.7931141853 -16.90999794 -0.40219837427
          0.095981962979 -9.1578350067 0.071426272392 1.605597496 -13.014848709 0.22802960873
          13.383569717 -17.675962448 0.30098730326 0 0 0
          -0.15007722378 -3.575397253 0.095034003258 6.8022542 -16.940944672 -0.20013527572
          11.210871696 -17.38992691 0.26890313625 -0.14245779812 -3.6228406429 0.049289252609
          -0.067253522575 -7.09248209 -3.8692928683e-06 3.1708154678 -14.941614151 2.8991772183e-07
          -0.056768018752 -1.054006815 -0.026435609907 9.0258903503 -17.140005112 0.23346176744
          6.8022837639 -16.941474915 3.5832281355e-06 -0.13987550139 -3.6391327381 -2.2029184947e-06
          4.5260858536 -14.908133507 0.39245149493 0.87110364437 -13.326216698 -0.49768143892
          -0.10892470926 -2.2499496937 -0.042959112674 -0.077561169863 -5.2138519287 -0.040542278439
          0.12857085466 -11.176199913 -0.12588557601 0.88860625029 -13.300663948 -0.21359559894
          0.48276171088 -11.27835083 0.5638038516 0.11128759384 -11.25893116 -0.13945160806
          -0.06570237875 -7.0672578812 -0.027082096785 3.1837794781 -14.935932159 0.20511725545
          1.579117775 -13.005487442 0.41055512428 0.12073493004 -9.0358543396 0.041317291558
          -0.15879696608 -5.1386914253 0.10382279754 4.9116792679 -16.900413513 -0.35140776634
          13.383012772 -17.629386902 0.60385286808 0 0 0
          11.208842278 -17.342161179 0.53973025084 -0.15451319516 -5.1882429123 0.053672965616
          0.90191102028 -13.315398216 -3.2964530874e-06 -0.046940717846 -8.9538240433 0.06075148657
          1.9168692827 -14.911920547 -0.42151087523 4.8713946342 -16.873128891 -0.18037894368
          -0.075501486659 -1.0243220329 -0.063376329839 0.19890405238 -11.172293663 -4.5308952394e-06
          6.8022561073 -16.940940857 0.20014248788 -0.14245848358 -3.6228406429 -0.04929363355
          1.9129652977 -14.900393486 -0.1955755949 -0.048830911517 -9.0324001312 0.031582415104
          9.0195875168 -17.092632294 0.47057718039 -0.15344017744 -5.2068729401 -3.0106048143e-06
          4.7948198318 -16.834196091 2.1969087811e-06 -0.12195885926 -2.2083137035 -0.083517998457
          1.8986266851 -14.893508911 -1.2751186205e-06 14.399573326 -19.837509155 -0.61217159033
          0 0 0 -0.043609701097 -9.055768013 -4.3729419303e-06
          14.397215843 -19.888561249 -0.30538642406 0 0 0
          0.88860678673 -13.300661087 0.21358905733 12.118125916 -19.545717239 -0.54289186001
          -0.063227213919 -6.9979171753 -0.055105641484 3.1782102585 -14.936256409 0.40921664238
          -0.12420474738 -0.98153597116 0.10936058313 0.11128651351 -11.25893116 0.13944284618
          12.116224289 -19.597631454 -0.27105590701 -0.092071376741 -1.0112433434 0.045677617192
          6.7931170464 -16.909992218 0.40220567584 14.397830963 -19.905296326 9.4057786555e-06
          -0.15451392531 -5.1882429123 -0.05367892608 9.8107070923 -19.283693314 -0.47162148356
          -0.19425344467 -2.1276421547 0.14295108616 4.8713960648 -16.873125076 0.18038332462
          0 0 0 3.6368448734 -16.942918777 -0.39427685738
          -0.14687789977 -6.8945045471 0.11180340499 -0.15007904172 -3.5753974915 -0.095038317144
          -0.17259962857 -2.1691794395 0.073364555836 9.8120241165 -19.337459564 -0.23515361547
          12.116540909 -19.614736557 7.6699016063e-06 1.9129661322 -14.900390625 0.19557309151
          -0.14316660166 -6.9444103241 0.058439280838 3.6299176216 -16.908592224 -0.18221750855
          -0.048831500113 -9.0323991776 -0.031591020525 -0.089968241751 -1.01801157 -4.7757424682e-07
          0.1590308845 -13.618402481 -0.49361941218 9.8140821457 -19.354728699 5.9165704442e-06
          0.87110507488 -13.326210976 0.49767491221 -0.16469068825 -2.1813929081 -1.1821269936e-06
          -0.14283825457 -6.9646053314 -3.7133258957e-06 0.22290854156 -13.613488197 -0.23926472664
          3.6130750179 -16.882106781 7.1842146099e-07 0.12856906652 -11.176198959 0.12587836385
          14.397216797 -19.888557434 0.30540525913 7.460914135 -19.043006897 -0.39366322756
          -0.024004286155 -11.068305969 0.05193547532 0 0 0
          -0.2326515913 -3.459280014 0.15819585323 1.1935683489 -15.155044556 -0.45480909944
          -0.22226712108 -3.5067958832 0.08114105463 7.4763712883 -19.096679688 -0.19630758464
          12.116225243 -19.59762764 0.27107125521 -0.027533102781 -11.154541969 0.020754687488
          1.2199982405 -15.150863647 -0.19379071891 -0.092071644962 -1.0112433434 -0.045678593218
          -0.15879875422 -5.1386914253 -0.10382858664 4.9116821289 -16.900407791 0.35141214728
          0.2283308655 -13.599099159 -4.9281857173e-06 -0.046941999346 -8.9538230896 -0.060759622604
          1.9168711901 -14.911914825 0.42150843143 7.4902858734 -19.113880157 4.1994985622e-06
          9.8120250702 -19.337457657 0.2351654917 -0.047027178109 -11.174181938 -4.7075109251e-06
          -0.17260019481 -2.169179678 -0.073366954923 -0.21738325059 -3.5218112469 -1.9824640276e-06
          -0.14316728711 -6.9444103241 -0.058446612209 3.6299188137 -16.908590317 0.18221895397
          1.1918253899 -15.137024879 -2.8619913337e-06 2.5453987122 -16.985109329 -0.41605463624
          -0.11020181328 -8.8272714615 0.12240429968 2.4861135483 -16.942741394 -0.18862098455
          -0.10661321133 -8.87687397 0.06251116097 14.399577141 -19.837501526 0.6121904254
          0 0 0 0.22290861607 -13.613485336 0.23925493658
          -0.24434563518 -4.9894714355 0.16253471375 5.2442202568 -18.865812302 -0.32345145941
          -0.24076321721 -5.0377111435 0.082984142005 12.11812973 -19.545711517 0.54290729761
          -0.12420573831 -0.98153614998 -0.10936179012 5.2312102318 -18.868150711 -0.17728981376
          7.4763731956 -19.096675873 0.1963160485 -0.027533290908 -11.154541016 -0.020763967186
          -0.22226783633 -3.5067958832 -0.081145010889 1.2199984789 -15.150859833 0.19378526509
          2.4000883102 -16.892494202 -8.2534120338e-07 -0.10779599845 -8.9011964798 -4.2604688133e-06
          9.8107099533 -19.283687592 0.4716334343 -0.19425500929 -2.1276423931 -0.14295357466
          3.6368472576 -16.942913055 0.39427831769 -0.23870265484 -5.053832531 -2.7750218123e-06
          -0.14687953889 -6.8945045471 -0.11181046814 5.1720781326 -18.859949112 2.6707828056e-06
          15.426815033 -22.163082123 -0.61891520023 0 0 0
          0.15903186798 -13.618395805 0.4936093986 2.4861147404 -16.942737579 0.18861941993
          0 0 0 13.033555031 -21.869140625 -0.54838651419
          -0.0014504117426 -13.198138237 0.14556795359 -0.10661377013 -8.87687397 -0.062519587576
          -0.17507344484 -0.90894299746 0.15877977014 0.46876874566 -15.445420265 -0.4197742939
          15.42371273 -22.215744019 -0.30913794041 7.4609174728 -19.042999268 0.39367187023
          13.030351639 -21.922206879 -0.27448245883 -0.12892633677 -0.93787670135 0.066570945084
          -0.024004792795 -11.068305016 -0.051944740117 -0.054812170565 -13.330300331 -0.023116445169
          -0.23265342414 -3.4592802525 -0.15819978714 4.1815924644 -18.877244949 -0.37738656998
          -0.24076397717 -5.0377111435 -0.082989647985 1.193569541 -15.155038834 0.45480313897
          -0.22626155615 -6.7129163742 0.16163484752 5.2312121391 -18.868148804 0.17729522288
          0.50745475292 -15.467432976 -0.17294065654 -0.22543159127 -6.7584366798 0.081952467561
          4.1377863884 -18.846326828 -0.15900467336 10.62163353 -21.599969864 -0.47875842452
          15.423130035 -22.233207703 1.0681697859e-05 -0.27103355527 -1.9992061853 0.2076780349
          0 0 0 10.619484901 -21.656675339 -0.23907288909
          -0.24123314023 -2.0388152599 0.1068451032 13.029788017 -21.940242767 8.7277585408e-06
          1.5081480742 -17.002174377 -0.37276524305 -0.020117297769 -13.322284698 -5.1223651099e-06
          0.4916074574 -15.437344551 -4.6672266762e-06 -0.054582986981 -10.884056091 0.14010553062
          -0.12655228376 -0.94326275587 -3.9663180473e-07 1.5010957718 -17.010770798 -0.17200005054
          4.059264183 -18.819023132 1.1530785287e-06 -0.050265304744 -10.94542408 0.071889713407
          -0.22341890633 -6.7762217522 -3.4908639464e-06 2.5454006195 -16.9851017 0.41605299711
          10.620417595 -21.67572403 6.7511232373e-06 -0.11020309478 -8.8272714615 -0.12241242826
          -0.22994184494 -2.0488598347 -1.0165151707e-06 8.1789274216 -21.344898224 -0.39601579309
          15.423714638 -22.215740204 0.30915930867 1.4567621946 -16.996730804 -2.3750192213e-06
          -0.33102458715 -3.2842764854 0.22762170434 -0.24434749782 -4.9894719124 -0.16254009306
          -0.050187982619 -10.970143318 -4.6871255108e-06 5.2442231178 -18.86580658 0.32345700264
          0 0 0 8.186507225 -21.410968781 -0.19877526164
          -0.31580135226 -3.3322067261 0.11887101084 13.030352592 -21.922203064 0.27449992299
          -0.054812472314 -13.330298424 0.023106051609 0.50745439529 -15.467430115 0.17293180525
          -0.12892661989 -0.93787682056 -0.066571772099 4.1377878189 -18.846323013 0.15900704265
          -0.22543233633 -6.7584371567 -0.081959374249 10.619486809 -21.656671524 0.23908641934
          8.1966600418 -21.43473053 4.8091569624e-06 3.0143666267 -18.857652664 -0.37794241309
          -0.16701672971 -8.5994434357 0.15438908339 -0.30946850777 -3.3439576626 -1.7503996332e-06
          -0.24123370647 -2.0388152599 -0.10684718192 -0.16317433119 -8.6448993683 0.080897390842
          1.5010956526 -17.010766983 0.17199531198 2.9682331085 -18.821508408 -0.1778460741
          -0.050265736878 -10.94542408 -0.071898981929 5.7121930122 -21.033727646 -0.27154648304
          15.426818848 -22.163074493 0.6189365983 0 0 0