<?xml version="1.0"?>
<VTKFile type="UnstructuredGrid" version="0.1" byte_order="LittleEndian" header_type="UInt32" compressor="vtkZLibDataCompressor">
  <UnstructuredGrid>
    <Piece NumberOfPoints="6405" NumberOfCells="4800">
      <PointData>
        <DataArray type="Float32" Name="DISPLACEMENT" NumberOfComponents="3" ComponentName0="X-DISPLACEMENT" ComponentName1="Y-DISPLACEMENT" ComponentName2="Z-DISPLACEMENT" format="ascii" RangeMin="0" RangeMax="247.65081767">
          0 0 0 0 0 0
          1.9917566776 -1.2155236006 -0.92296475172 0 0 0
          1.2893294096 -0.71625816822 -0.71662265062 0 0 0
          1.817938447 -1.3409076929 -0.36726990342 1.1215288639 -0.819909513 -0.29232889414
          0 0 0 3.5762112141 -2.2212104797 -0.94854724407
          0 0 0 3.5245382786 -2.3698377609 -0.48981249332
          2.5897641182 -1.8189820051 -0.79097527266 0 0 0
          0 0 0 1.8242965937 -1.3838227987 1.8715059014e-06
          0.9413998723 -0.48344174027 -0.55285137892 1.1170344353 -0.84107512236 8.8420131306e-07
          2.5344166756 -1.9378694296 -0.40397357941 0.80891245604 -0.5797727108 -0.22410529852
          3.4849565029 -2.4118573666 3.8951866372e-06 1.888179183 -1.4816839695 -0.61974060535
          0 0 0 2.4999034405 -1.9772727489 2.0421289264e-06
          1.831397295 -1.5923429728 -0.31796124578 0 0 0
          5.0207648277 -3.5125629902 -0.89227598906 0 0 0
          0.8025560379 -0.59795165062 -1.2619045719e-07 0 0 0
          0 0 0 1.817937851 -1.340906024 0.3672735393
          3.8146808147 -3.124710083 -0.75645846128 5.0354504585 -3.6214437485 -0.45514568686
          0.67181539536 -0.31669616699 -0.37488430738 1.1215292215 -0.81990760565 0.29233065248
          3.827013731 -3.227435112 -0.38556393981 0.58849823475 -0.42156296968 -0.1561306268
          1.8014713526 -1.622240901 7.0006528574e-08 3.5245380402 -2.3698341846 0.48982036114
          0 0 0 0 0 0
          1.2938950062 -1.2627453804 -0.43409261107 2.8501560688 -2.8174333572 -0.62222647667
          5.0229187012 -3.6610746384 6.2209896896e-06 2.5344176292 -1.9378654957 0.40397775173
          2.8429298401 -2.9152727127 -0.31596395373 0.80891281366 -0.57977056503 0.22410511971
          3.8182928562 -3.2618784904 3.4813308503e-06 1.23660779 -1.3710734844 -0.22345910966
          0.59465789795 -0.43660134077 -1.4839674805e-06 0 0 0
          6.3668212891 -4.9804811478 -0.80166393518 0 0 0
          4.9761404991 -4.6249136925 -0.69873303175 1.8313982487 -1.5923388004 0.31796145439
          6.4026370049 -5.0610146523 -0.40579354763 1.9917575121 -1.2155202627 0.9229683876
          0 0 0 0 0 0
          1.2159775496 -1.3983898163 -2.0883778689e-06 2.8333525658 -2.9455578327 6.3737002165e-07
          0.23893392086 -0.2240370214 -0.1645707041 5.0081439018 -4.7046761513 -0.35245624185
          1.2893310785 -0.71625429392 0.71662467718 1.9748833179 -2.6123485565 -0.48501229286
          0 0 0 5.0354509354 -3.6214382648 0.45515823364
          0.1914344281 -0.35297137499 -0.084036245942 1.9475545883 -2.7009439468 -0.24716128409
          3.8270151615 -3.22742939 0.38557097316 0.5884988904 -0.4215606153 0.15612787008
          3.7911221981 -4.3387360573 -0.59698981047 0.47017264366 -1.1329050064 -0.26118087769
          6.4036750793 -5.0892710686 8.751837413e-06 3.576212883 -2.2212030888 0.9485552907
          0 0 0 0 0 0
          3.8050677776 -4.4166502953 -0.30103963614 2.5897669792 -1.8189742565 0.79097962379
          5.0129976273 -4.7324075699 5.1936335694e-06 0.41248288751 -1.2380735874 -0.13945321739
          0.94140052795 -0.48343726993 0.55285131931 0.20922404528 -0.38562294841 -3.2471366467e-06
          1.9377886057 -2.7293403149 -2.4088994905e-06 2.8429312706 -2.9152667522 0.31596529484
          1.2366088629 -1.3710691929 0.22345496714 3.8059880733 -4.4431419373 1.5362348904e-06
          1.8881809711 -1.4816757441 0.61974096298 0.40412533283 -1.2683483362 -4.3363374971e-06
          2.6920511723 -4.1362195015 -0.49988514185 6.4026384354 -5.0610074997 0.4058111608
          5.0207676888 -3.5125520229 0.89228880405 0 0 0
          7.6037940979 -6.5866456032 -0.72464686632 0 0 0
          0 0 0 0.95550107956 -2.4702899456 -0.3932428658
          2.6902275085 -4.2100257874 -0.2525947094 7.6394581795 -6.6465563774 -0.36420565844
          6.0674819946 -6.2563557625 -0.64629161358 5.0081458092 -4.7046689987 0.35246667266
          0.030874099582 -0.39937797189 -0.18167488277 0 0 0
          3.8146848679 -3.1246986389 0.75646567345 0.67181539536 -0.31669127941 0.37488177419
          0.91732633114 -2.5436728001 -0.19004143775 0.19143630564 -0.35296878219 0.084030225873
          -0.043719232082 -0.44805598259 -0.06752935797 1.9475560188 -2.700937748 0.24715650082
          6.0999917984 -6.3184490204 -0.32379549742 3.805069685 -4.4166426659 0.30104273558
          2.6876170635 -4.2368979454 -2.336774287e-06 7.6456837654 -6.6678328514 1.1476985492e-05
          0.17845495045 -1.3267474174 -0.32482841611 0.41248515248 -1.2380691767 0.13944450021
          0 0 0 4.7049531937 -5.9826693535 -0.56638294458
          1.2938958406 -1.2627366781 0.43408858776 2.8501589298 -2.8174214363 0.62222796679
          0.9067555666 -2.5700912476 -5.7324064073e-06 6.1084189415 -6.340069294 7.1687882155e-06
          -0.025876253843 -0.50851172209 -6.7300843511e-06 0.16190108657 -1.3602230549 -0.13019019365
          4.7246022224 -6.0454406738 -0.28415057063 6.3668251038 -4.9804668427 0.80168181658
          0 0 0 1.6237784624 -3.9769468307 -0.41915002465
          4.9761457443 -4.6248993874 0.69874370098 0.16706652939 -1.4075009823 -9.0666562755e-06
          1.6112395525 -4.0501923561 -0.20353262126 4.7297048569 -6.0672235489 2.7557568956e-06
          0.23893488944 -0.22403173149 0.16456532478 2.6902294159 -4.2100176811 0.25259006023
          3.4433362484 -5.7653427124 -0.48549875617 7.63945961 -6.6465477943 0.36422869563
          0.41242220998 -2.5206665993 -0.3060361743 1.9748851061 -2.6123359203 0.4850076437
          0 0 0 0.91732889414 -2.5436663628 0.19002994895
          3.450558424 -5.8295278549 -0.24390366673 -0.043716128916 -0.44805341959 0.067516602576
          0.42652517557 -2.594773531 -0.14524805546 6.0999941826 -6.3184399605 0.32380992174
          3.7911262512 -4.3387207985 0.59699308872 0.47017464042 -1.1328959465 0.26117220521
          8.7435789108 -8.2901592255 -0.66678458452 0 0 0
          1.5975655317 -4.072098732 -6.6183351919e-06 7.0919947624 -7.9825906754 -0.60414874554
          8.7724781036 -8.3378572464 -0.33418682218 0 0 0
          0.060543194413 -0.63447612524 -0.11720196158 7.118871212 -8.0330524445 -0.30171346664
          3.4502491951 -5.8510437012 -1.8485694682e-06 0.029835019261 -0.67575711012 -0.042804691941
          0.16190430522 -1.3602184057 0.13017238677 0.41697517037 -2.6198248863 -1.0716104953e-05
          4.7246046066 -6.0454316139 0.28415611386 5.5840406418 -7.7259922028 -0.5384324789
          -0.019856009632 -1.5288789272 -0.12053002417 8.7793884277 -8.3547554016 1.4403219211e-05
          0 0 0 -0.054896283895 -1.5880993605 -0.082420110703
          5.6026558876 -7.7776966095 -0.26899597049 7.1268882751 -8.0506467819 9.4018068921e-06
          0.021140832454 -0.68916642666 -5.5096129472e-06 2.6920540333 -4.136203289 0.49988058209
          2.2599196434 -5.58639431 -0.39181956649 7.6037993431 -6.586628437 0.72467011213
          0 0 0 0.65066808462 -3.8915076256 -0.24397036433
          1.6112421751 -4.0501842499 0.20351935923 0.95550394058 -2.4702768326 0.39323139191
          6.0674881935 -6.2563381195 0.64630621672 0.030874622986 -0.39937016368 0.18166235089
          0.65172719955 -3.9877822399 -0.13897663355 2.254904747 -5.6570053101 -0.19775146246
          3.4505608082 -5.829518795 0.24390000105 0.42652842402 -2.5947668552 0.1452267319
          5.6082448959 -7.7954325676 4.2826504796e-06 -0.057880334556 -1.6013324261 -1.0864616343e-05
          4.1836996078 -7.5297365189 -0.47083106637 -0.21883200109 -2.7065837383 -0.23278158903
          0.17845718563 -1.3267357349 0.32481041551 8.772480011 -8.337846756 0.33421570063
          4.7049584389 -5.9826512337 0.56638866663 0 0 0
          2.2517511845 -5.6765785217 -6.7563437369e-06 0.64948600531 -4.0050773621 -1.1513308891e-05
          4.1920862198 -7.5805830956 -0.23442858458 7.118874073 -8.033041954 0.30173233151
          -0.24722981453 -2.763563633 -0.099907569587 0.029835211113 -0.6757543087 0.042793996632
          1.6237820387 -3.976929903 0.41913664341 4.1944746971 -7.5964159966 -9.8937812254e-07
          5.6026587486 -7.7776865959 0.26900458336 -0.054894994944 -1.5880948305 0.082398205996
          -0.23466162384 -2.786346674 -1.6802359823e-05 9.8074970245 -10.066840172 -0.62752795219
          0 0 0 9.82858181 -10.108809471 -0.3140681684
          3.4433403015 -5.7653236389 0.48549517989 8.0570678711 -9.7779817581 -0.57220304012
          0.41242566705 -2.5206515789 0.30601462722 0.91661500931 -5.4561433792 -0.26370561123
          0.0082284789532 -0.78623348475 -0.05132554099 0.651730299 -3.9877738953 0.13895356655
          2.2549073696 -5.6569957733 0.19773796201 0 0 0
          8.0771884918 -9.8223199844 -0.28520491719 0.90505945683 -5.5382795334 -0.14360411465
          -0.014013840817 -0.81880956888 -0.020764578134 2.8465688229 -7.3966288567 -0.39648491144
          -0.041530482471 -4.1063270569 -0.28822028637 8.7435855865 -8.2901391983 0.66681361198
          0 0 0 7.092001915 -7.9825701714 0.60416775942
          9.8347787857 -10.123531342 1.7548418327e-05 -0.093114539981 -4.125582695 -0.11314335465
          2.8371801376 -7.4391307831 -0.19976136088 0.060539036989 -0.63447153568 0.11719159782
          6.4141426086 -9.544588089 -0.51379615068 -0.054446861148 -1.7656457424 -0.084070511162
          0 0 0 4.1920890808 -7.5805726051 0.23442666233
          -0.24722601473 -2.7635567188 0.099874205887 8.0833759308 -9.8374166489 1.188747774e-05
          0.91588824987 -5.5613937378 -1.1857595382e-05 6.4305944443 -9.5889253616 -0.25536128879
          -0.075257286429 -1.8105676174 -0.038222689182 -0.016087908298 -0.82677394152 -5.2868053899e-06
          5.5840473175 -7.7259716988 0.53844124079 -0.019859643653 -1.5288712978 0.12051039189
          2.8363881111 -7.4515380859 -6.4332084548e-06 -0.067182324827 -4.1668019295 -1.7826325347e-05
          2.2599234581 -5.5863747597 0.39180609584 6.4350419044 -9.6036043167 6.0881384343e-06
          -0.082079395652 -1.8279669285 -1.1320523299e-05 0.65067219734 -3.8914899826 0.24394714832
          9.828584671 -10.108798027 0.31410330534 4.8721389771 -9.3878583908 -0.45759108663
          0 0 0 -0.10564416647 -2.911290884 -0.10702954233
          4.8828825951 -9.4270496368 -0.22669100761 8.0771923065 -9.8223085403 0.28522872925
          -0.014014285989 -0.81880760193 0.020754434168 0.90506249666 -5.5382695198 0.14358042181
          -0.12359263748 -2.9680144787 -0.056188825518 4.1837048531 -7.529715538 0.47082930803
          1.3557443619 -7.2815957069 -0.36092749238 2.8371829987 -7.4391202927 0.19974857569
          -0.21882852912 -2.7065663338 0.23274804652 -0.093110539019 -4.1255741119 0.11310809851
          0.20771177113 -5.6718435287 -0.39075091481 1.3249487877 -7.3110847473 -0.1705044955
          4.8847723007 -9.4401302338 1.9303283239e-07 6.4305977821 -9.5889148712 0.25537353754
          -0.075258120894 -1.8105639219 0.038200356066 0.18021306396 -5.654510498 -0.1502341032
          -0.13348801434 -2.9795563221 -1.6877744201e-05 10.822872162 -11.905487061 -0.60470241308
          0 0 0 -0.017630260438 -0.87979638577 -0.014034179971
          1.3174651861 -7.3220610619 -1.1965369595e-05 3.4051771164 -9.3071641922 -0.41528427601
          8.9760322571 -11.626846313 -0.54912161827 9.8075037003 -10.066817284 0.62756323814
          0 0 0 0 0 0
          0.19273161888 -5.692630291 -1.8534385163e-05 -0.22537393868 -4.2326374054 -0.10259699821
          10.83662796 -11.947141647 -0.30223214626 3.4067442417 -9.3341550827 -0.20595298707
          8.9900074005 -11.670152664 -0.27316498756 8.0570755005 -9.7779588699 0.57222694159
          -0.025585116819 -0.90479016304 -0.0046265916899 0.91661942005 -5.4561238289 0.26368203759
          0.0082228444517 -0.78623068333 0.051315061748 -0.23254206777 -4.2946033478 -0.11852665246
          4.8828854561 -9.4270381927 0.22669148445 -0.12359319627 -2.9680089951 0.056155335158
          7.1957907677 -11.408587456 -0.48902565241 2.8465733528 -7.3966078758 0.39647230506
          -0.041526217014 -4.1063079834 0.28818511963 0 0 0
          -0.06688810885 -1.8932250738 -0.025660084561 10.841709137 -11.961418152 2.0929857783e-05
          -0.027532955632 -0.9121838212 -4.8789161156e-06 3.4081265926 -9.3463220596 -5.7872339312e-06
          7.2084918022 -11.449705124 -0.24188052118 6.4141497612 -9.5445652008 0.51380860806
          8.9944171906 -11.684074402 1.4604749595e-05 -0.054453406483 -1.7656400204 0.084048971534
          -0.17920309305 -4.3078250885 -2.1627933165e-05 -0.077153399587 -1.9303634167 -0.01209084224
          1.3249526024 -7.3110742569 0.17048062384 0.1802175343 -5.6545009613 0.15019746125
          0.54262322187 -7.4209609032 -0.40302816033 7.2098674774 -11.460996628 8.125959539e-06
          -0.080582857132 -1.9426013231 -1.080594393e-05 0.56307899952 -7.4286737442 -0.17763710022
          5.5087990761 -11.275260925 -0.43093466759 0 0 0
          -0.14177288115 -3.0652933121 -0.037266414613 10.836630821 -11.94712925 0.30227401853
          -0.025586163625 -0.90478897095 0.0046170526184 3.4067475796 -9.3341436386 0.20594149828
          5.518579483 -11.309741974 -0.21079310775 4.8721451759 -9.3878355026 0.45759177208
          8.9900112152 -11.670140266 0.27319422364 2.0001552105 -9.2367773056 -0.41544017196
          -0.49214285612 -5.9309530258 -0.40359342098 -0.10564997792 -2.9112818241 0.10699863732
          -0.15235894918 -3.1112401485 -0.021811345592 -0.23254030943 -4.2945966721 0.11848437041
          1.9748761654 -9.2495918274 -0.19464270771 -0.47946220636 -5.9130005836 -0.17645744979
          0.55874603987 -7.4448952675 -1.8896165784e-05 1.3557499647 -7.2815742493 0.36090388894
          7.2084956169 -11.44969368 0.24189682305 0.20771689713 -5.6718220711 0.39071440697
          5.5145468712 -11.320329666 1.5793644934e-06 -0.07715562731 -1.9303612709 0.012069353834
          -0.15066584945 -3.1274158955 -1.689911187e-05 1.9457010031 -9.2492580414 -1.1897694094e-05
          -0.091826781631 -5.8092951775 -2.4483773814e-05 -0.2406488806 -4.4431128502 -0.07143830508
          3.9478058815 -11.210453033 -0.39632564783 10.822879791 -11.905462265 0.60474425554
          0 0 0 0.56308341026 -7.4286632538 0.17759950459
          -0.017636664212 -0.87979495525 0.014023836702 -0.24489597976 -4.4930224419 -0.036391105503
          3.4051826 -9.307141304 0.41527304053 8.9760398865 -11.626821518 0.54915088415
          3.9546787739 -11.236026764 -0.19382612407 11.816718102 -13.812003136 -0.59532225132
          0 0 0 -0.2253767103 -4.2326259613 0.10255862027
          11.824141502 -13.856876373 -0.29702740908 -0.040232840925 -0.92397379875 0.018055960536
          9.8698415756 -13.534125328 -0.53387129307 5.5185832977 -11.309729576 0.21079643071
          0 0 0 -0.15236124396 -3.1112370491 0.021778222173
          9.8780765533 -13.580138206 -0.26559093595 -0.037260390818 -0.94524002075 0.0079178456217
          1.9748805761 -9.2495803833 0.19461892545 -0.47945618629 -5.9129920006 0.17640647292
          7.1957983971 -11.40856266 0.48904213309 -0.22568444908 -4.4854273796 -2.2324187739e-05
          3.9482738972 -11.24714756 -4.8758520279e-06 -0.066897198558 -1.8932222128 0.02563919127
          0.82397997379 -9.2254743576 -0.31361991167 -0.092478111386 -1.9637755156 0.018487494439
          7.946003437 -13.309700012 -0.46813234687 -0.25886934996 -7.6852436066 -0.39258241653
          11.827791214 -13.871707916 2.454242167e-05 0 0 0
          0.84196388721 -9.2674751282 -0.17807689309 9.8811244965 -13.594534874 1.7501535694e-05
          -0.03762871027 -0.95133292675 -4.4026542128e-06 7.9548788071 -13.351551056 -0.23018352687
          -0.092666119337 -1.9954190254 0.01024947688 -0.25230592489 -7.6900582314 -0.17704449594
          0.54262918234 -7.4209375381 0.40299040079 0.8506488204 -9.2667160034 -1.8508822905e-05
          -0.29731532931 -5.9904098511 -0.069103114307 -0.24489733577 -4.4930176735 0.03634724021
          2.5612740517 -11.160509109 -0.37166246772 7.9557795525 -13.359918594 1.0326282791e-05
          5.5088062286 -11.27523613 0.43093833327 3.9546825886 -11.236014366 0.19381649792
          -0.22519290447 -7.6891851425 -2.630698873e-05 -0.092358075082 -2.0063052177 -1.0058303815e-05
          -0.14178185165 -3.0652890205 0.037234898657 11.82414341 -13.856863022 0.2970764637
          6.1038551331 -13.183364868 -0.3953204453 -0.29342505336 -6.0640964508 -0.06644167006
          -0.15353819728 -3.1558654308 0.015673492104 2.5628471375 -11.180768013 -0.18614922464
          2.0001621246 -9.2367534637 0.41541641951 -0.49213823676 -5.9309301376 0.40354248881
          0 0 0 -0.15558555722 -3.194943428 0.0089513259009
          9.8780794144 -13.580124855 0.26562589407 -0.037261780351 -0.94523960352 -0.0079265460372
          6.0919160843 -13.211315155 -0.1932131201 -0.33762642741 -6.0515298843 -2.6886909836e-05
          2.5540223122 -11.186296463 -1.1311371054e-05 0.84196788073 -9.2674636841 0.17803986371
          6.0679888725 -13.2113657 3.1685790418e-06 -0.15487535298 -3.2059845924 -1.6045407392e-05
          7.9548821449 -13.351537704 0.23020423949 -0.092669017613 -1.995418191 -0.01026956737
          -0.25230121613 -7.6900477409 0.17699195445 -0.24065537751 -4.4431056976 0.07139673084
          3.9478125572 -11.210428238 0.39631637931 4.4519138336 -13.142103195 -0.35513550043
          11.816724777 -13.811975479 0.59537112713 0 0 0
          -0.21181115508 -4.5207433701 0.016529137269 -0.0402395688 -0.92397367954 -0.018065731972
          9.8698501587 -13.534098625 0.53390622139 -0.29342538118 -6.0640902519 0.066388703883
          2.5628511906 -11.180755615 0.18612670898 4.4388709068 -13.160936356 -0.16843129694
          0.01075129956 -9.5020484924 -0.40289762616 -0.21718688309 -4.568133831 0.0056237312965
          -0.15558896959 -3.1949422359 -0.0089830495417 6.0919203758 -13.211302757 0.19321960211
          -0.0041579292156 -9.4789619446 -0.16471816599 1.1210587025 -11.084064484 -0.33092141151
          -0.43465670943 -7.66918993 -0.045244991779 12.808164597 -15.806491852 -0.59422802925
          0 0 0 10.755064011 -15.52504921 -0.52767807245
          0.8239865303 -9.2254495621 0.31358262897 -0.092488050461 -1.9637751579 -0.018507421017
          7.9460115433 -13.309672356 0.46815317869 -0.43425539136 -7.7616949081 -0.1158625409
          1.1186360121 -11.107825279 -0.16162012517 -0.25886294246 -7.685218811 0.39252984524
          12.810833931 -15.854847908 -0.29624927044 0 0 0
          -0.22238917649 -4.5826230049 -2.1686943001e-05 4.4109578133 -13.16795063 -3.7939428239e-06
          -0.063033558428 -0.93330556154 0.046232562512 10.758128166 -15.574342728 -0.26300689578
          -0.050066810101 -0.9528568387 0.019304828718 0.03082447499 -9.508764267 -2.5853047191e-05
          8.7002544403 -15.282922745 -0.45687559247 -0.34978249669 -7.7950229645 -3.0039176636e-05
          1.126311779 -11.121308327 -1.7851027224e-05 12.812892914 -15.87060833 2.8328428016e-05
          0 0 0 -0.11334255338 -1.9761482477 0.058947578073
          8.7052364349 -15.330304146 -0.22606000304 10.75984478 -15.589913368 2.0468174625e-05
          -0.29731935263 -5.9903993607 0.06905387342 2.5612809658 -11.160484314 0.37164011598
          -0.049370773137 -0.9583992362 -3.8995885916e-06 -0.10508909822 -2.0051715374 0.030604401603
          6.1038627625 -13.183338165 0.39532735944 -0.1535487771 -3.1558644772 -0.015704084188
          -0.27977463603 -6.0648703575 0.014633187093 3.0118675232 -13.144677162 -0.35072213411
          -0.21718990803 -4.5681319237 -0.0056664245203 4.4388751984 -13.160923958 0.16842392087
          -0.2887648344 -6.1229367256 0.0039924890734 3.0127151012 -13.145878792 -0.16811053455
          -0.0041533969343 -9.4789505005 0.16466677189 8.7085981369 -15.343283653 1.2552754924e-05
          -0.10206626356 -2.0145378113 -9.1033507488e-06 6.6417918205 -15.119220734 -0.38593703508
          -0.434253335 -7.7616872787 0.11580315232 1.1186401844 -11.107812881 0.16158463061
          12.810834885 -15.854832649 0.29630580544 0 0 0
          -0.15585723519 -3.1634316444 0.06616487354 6.6201901436 -15.147302628 -0.19122324884
          10.758131027 -15.574327469 0.26304775476 -0.15246094763 -3.199400425 0.034223608673
          -0.28023990989 -6.1451611519 -2.6610334317e-05 3.0097961426 -13.149459839 -1.0416164514e-05
          -0.050068315119 -0.95285707712 -0.019312605262 8.7052402496 -15.330289841 0.2260851562
          6.5918946266 -15.142946243 4.9734267122e-06 -0.15190461278 -3.2111437321 -1.4738788195e-05
          4.451921463 -13.1420784 0.3551287353 0.29230722785 -11.324666977 -0.43253940344
          -0.10509223491 -2.0051720142 -0.030622685328 -0.21182070673 -4.5207414627 -0.016569722444
          -0.79923373461 -9.7725143433 -0.43319731951 0.31033927202 -11.305555344 -0.16753421724
          0.010758577846 -9.5020227432 0.40284642577 -0.76043528318 -9.7389373779 -0.21378949285
          -0.28876674175 -6.1229338646 -0.0040446682833 3.0127193928 -13.145867348 0.16808995605
          1.121065855 -11.084039688 0.3308865726 -0.43465766311 -7.6691775322 0.045190148056
          -0.19224508107 -4.5222787857 0.069639250636 4.8784313202 -15.099881172 -0.33167818189
          12.808170319 -15.806460381 0.59428429604 0 0 0
          10.75507164 -15.525018692 0.52771872282 -0.19221678376 -4.5632820129 0.03667235747
          0.30744475126 -11.3282938 -2.4730810765e-05 -0.37401273847 -7.8208909035 -0.018283864483
          1.659984827 -13.140834808 -0.38700482249 4.8174877167 -15.095860481 -0.16452248394
          -0.063040100038 -0.93330645561 -0.046241533011 -0.27129790187 -9.5402164459 -3.1324550946e-05
          6.6201944351 -15.147289276 0.19123321772 -0.15246477723 -3.1994009018 -0.034252818674
          1.6103149652 -13.112341881 -0.17479154468 -0.36961710453 -7.8796286583 -0.0092446310446
          8.7002620697 -15.282893181 0.45690077543 -0.19163744152 -4.5776028633 -2.0122804926e-05
          4.727481842 -15.076901436 -2.5411359275e-06 -0.113352485 -1.9761497974 -0.058965951204
          1.5491467714 -13.08106041 -1.6654712454e-05 13.802358627 -17.908460617 -0.59576010704
          0 0 0 -0.34374198318 -7.8685069084 -3.0508266718e-05
          13.80232811 -17.958023071 -0.29725772142 0 0 0
          0.31034392118 -11.305542946 0.16748511791 11.641174316 -17.624687195 -0.5286052227
          -0.27978178859 -6.0648674965 -0.014682473615 3.0118751526 -13.144652367 0.35070219636
          -0.083867631853 -0.91035157442 0.073643401265 -0.7604315877 -9.7389259338 0.21372400224
          11.641065598 -17.675046921 -0.26414224505 -0.061346065253 -0.9296041131 0.030710188672
          6.6417999268 -15.119194031 0.38594728708 13.802791595 -17.974323273 3.2149775507e-05
          -0.19222041965 -4.5632820129 -0.036712061614 9.4678707123 -17.370121002 -0.46001699567
          -0.13105303049 -1.9302279949 0.099235273898 4.8174934387 -15.095848083 0.16451761127
          0 0 0 3.4476766586 -15.099673271 -0.35150298476
          -0.21969360113 -6.0697698593 0.068995170295 -0.15586821735 -3.1634333134 -0.066193319857
          -0.11508911103 -1.958701849 0.050625380129 9.4671792984 -17.423055649 -0.23017609119
          11.641885757 -17.691768646 2.3311913537e-05 1.6103206873 -13.112330437 0.17475838959
          -0.22059039772 -6.113090992 0.036233752966 3.4376578331 -15.089357376 -0.17719858885
          -0.36961746216 -7.8796243668 0.0091847088188 -0.059802770615 -0.93467915058 -3.402305083e-06
          -0.55319947004 -11.594755173 -0.40796360373 9.4684152603 -17.4420681 1.4555202142e-05
          0.29231521487 -11.324641228 0.43249067664 -0.10970675945 -1.9676935673 -8.0403569882e-06
          -0.22066301107 -6.1263484955 -2.490740917e-05 -0.50342130661 -11.60354805 -0.17462344468
          3.4229149818 -15.082211494 -9.3309181466e-06 -0.79922670126 -9.7724885941 0.43313190341
          13.802329063 -17.958005905 0.29732185602 7.2438883781 -17.148174286 -0.39036357403
          -0.40843352675 -9.6860399246 0.002708140295 0 0 0
          -0.15822224319 -3.0960299969 0.11332597584 0.56607455015 -13.197197914 -0.33178263903
          -0.15005628765 -3.1305258274 0.05885815993 7.2491827011 -17.196302414 -0.19707094133
          11.641067505 -17.675029755 0.26418870687 -0.39334508777 -9.7674913406 -0.04493823275
          0.60072350502 -13.21120739 -0.18581417203 -0.061347529292 -0.92960482836 -0.030717013404
          -0.19225537777 -4.5222811699 -0.069677360356 4.8784399033 -15.099855423 0.33167409897
          -0.48023843765 -11.573825836 -3.0969400541e-05 -0.37401598692 -7.8208851814 0.018227154389
          1.659994483 -13.14081192 0.38697218895 7.2568259239 -17.211387634 6.300309451e-06
          9.4671812057 -17.42304039 0.23020516336 -0.44392389059 -9.7452316284 -3.3288728446e-05
          -0.11509214342 -1.9587030411 -0.050641577691 -0.14744704962 -3.1413788795 -1.3092078916e-05
          -0.22059316933 -6.113090992 -0.036282800138 3.4376626015 -15.089345932 0.17718014121
          0.60696452856 -13.187740326 -2.2745482056e-05 2.1732587814 -15.061904907 -0.35311260819
          -0.22599481046 -7.796710968 0.071045480669 2.165699482 -15.059023857 -0.17556077242
          -0.23023451865 -7.8437013626 0.032148718834 13.802362442 -17.908424377 0.5958237052
          0 0 0 -0.5034185648 -11.603536606 0.17456114292
          -0.16725766659 -4.4389419556 0.12106180191 5.2272496223 -17.030391693 -0.32457873225
          -0.16522870958 -4.4758563042 0.062433268875 11.641180038 -17.624652863 0.52865129709
          -0.083873659372 -0.91035324335 -0.07365141809 5.1683292389 -17.026863098 -0.18528017402
          7.249186039 -17.196287155 0.19708360732 -0.39334431291 -9.7674846649 0.04487292096
          -0.15006002784 -3.1305274963 -0.058884166181 0.60072767735 -13.211195946 0.1857688576
          2.1444063187 -15.044971466 -1.5379717297e-05 -0.23473677039 -7.8570017815 -2.8869329981e-05
          9.4678754807 -17.370088577 0.46004584432 -0.13106228411 -1.9302308559 -0.099251702428
          3.4476847649 -15.099648476 0.35148528218 -0.16641917825 -4.4853043556 -1.793030242e-05
          -0.21970184147 -6.0697717667 -0.069041900337 5.0459227562 -16.991920471 -1.4098751535e-06
          14.79616642 -20.12469101 -0.59588509798 0 0 0
          -0.55319148302 -11.594729424 0.40790131688 2.1657047272 -15.059013367 0.17553022504
          0 0 0 12.529268265 -19.841081619 -0.53157430887
          -0.58851957321 -11.51961422 0.035204440355 -0.23023597896 -7.8437008858 -0.032205447555
          -0.099611461163 -0.85293716192 0.1029965803 -0.24745962024 -13.439819336 -0.35452848673
          14.795603752 -20.172847748 -0.29773542285 7.2438936234 -17.148143768 0.39037647843
          12.527849197 -19.889816284 -0.26625749469 -0.067884340882 -0.87236887217 0.042668581009
          -0.40843436122 -9.6860303879 -0.0027687279508 -0.58518475294 -11.639831543 -0.079027734697
          -0.1582325846 -3.09603405 -0.11335147172 3.8827681541 -16.991765976 -0.34466212988
          -0.16523231566 -4.4758582115 -0.062468726188 0.56608253717 -13.197174072 0.33173707128
          -0.16239236295 -5.9694094658 0.11957928538 5.1683354378 -17.026851654 0.18527731299
          -0.25315761566 -13.449832916 -0.1274792552 -0.16453096271 -6.0059089661 0.064491383731
          3.9050180912 -16.992523193 -0.15772476792 10.254014969 -19.579898834 -0.46882623434
          14.795079231 -20.188884735 3.579141412e-05 -0.1427949667 -1.8275955915 0.13982561231
          0 0 0 10.251354218 -19.632837296 -0.23524324596
          -0.11918066442 -1.8560078144 0.071954719722 12.527634621 -19.906745911 2.5780214855e-05
          0.85412937403 -14.992275238 -0.3154758811 -0.49100238085 -11.668089867 -3.3552551031e-05
          -0.24510374665 -13.447952271 -2.8367701816e-05 -0.24196411669 -9.6584596634 0.062218755484
          -0.065562359989 -0.87714630365 -2.9375416943e-06 0.84046280384 -15.010092735 -0.13643065095
          3.9225311279 -16.992952347 -8.83192115e-06 -0.24339669943 -9.7177276611 0.040092308074
          -0.16310596466 -6.0152235031 -2.2260028345e-05 2.1732673645 -15.061882973 0.35308238864
          10.251763344 -19.651975632 1.5973744667e-05 -0.22600024939 -7.7967123985 -0.071099132299
          -0.11140783876 -1.864020586 -6.9549528234e-06 7.9303841591 -19.327278137 -0.39409559965
          14.795601845 -20.172828674 0.29780676961 0.82271081209 -15.024698257 -2.105538988e-05
          -0.1564950794 -2.9578197002 0.16384679079 -0.16726745665 -4.4389472008 -0.12109605968
          -0.23404358327 -9.743976593 -3.1848929211e-05 5.2272586823 -17.030366898 0.32457694411
          0 0 0 7.9439282417 -19.390098572 -0.20068150759
          -0.14418302476 -2.9917666912 0.083312548697 12.527849197 -19.889797211 0.26630884409
          -0.58518379927 -11.639823914 0.078960768878 -0.25315511227 -13.449821472 0.12742239237
          -0.067885607481 -0.87237000465 -0.042674489319 3.9050233364 -16.992513657 0.1577078253
          -0.16453385353 -6.0059108734 -0.064535290003 10.251355171 -19.632818222 0.23527504504
          7.9637293816 -19.417901993 6.6666243583e-06 2.6207156181 -16.981040955 -0.33007410169
          -0.13071964681 -7.6742768288 0.11362707615 -0.14003904164 -3.002199173 -1.1280920262e-05
          -0.11918330938 -1.8560097218 -0.071968756616 -0.12924580276 -7.7130937576 0.063324525952
          0.84046751261 -15.010082245 0.1363889128 2.5998604298 -16.955303192 -0.14466568828