<?xml version="1.0"?>
<VTKFile type="UnstructuredGrid" version="0.1" byte_order="LittleEndian" header_type="UInt32" compressor="vtkZLibDataCompressor">
  <UnstructuredGrid>
    <Piece NumberOfPoints="6405" NumberOfCells="4800">
      <PointData>
        <DataArray type="Float32" Name="DISPLACEMENT" NumberOfComponents="3" ComponentName0="X-DISPLACEMENT" ComponentName1="Y-DISPLACEMENT" ComponentName2="Z-DISPLACEMENT" format="ascii" RangeMin="0" RangeMax="716.87538131">
          0 0 0 0 0 0
          4.2552475929 -2.5123283863 -2.0007550716 0 0 0
          2.9815444946 -1.4286315441 -1.6803156137 0 0 0
          3.8431713581 -2.7135453224 -0.8033233881 2.5768711567 -1.5918562412 -0.68635398149
          0 0 0 7.6927423477 -4.1916971207 -2.130661726
          0 0 0 7.5363879204 -4.449429512 -1.1054189205
          6.0151200294 -3.282656908 -1.8937166929 0 0 0
          0 0 0 3.8467135429 -2.7955999374 5.4044445363e-08
          2.3918702602 -0.92116206884 -1.4477624893 2.5634131432 -1.6306862831 5.7959070432e-08
          5.8574333191 -3.4799804688 -0.9669919014 2.0486829281 -1.068939805 -0.58961969614
          7.4421186447 -4.5249710083 1.8492110598e-07 4.7533226013 -2.5099859238 -1.6303017139
          0 0 0 5.7707495689 -3.5522224903 1.8088047682e-07
          4.6095190048 -2.6949911118 -0.83839428425 0 0 0
          10.992007256 -6.2331156731 -2.1063411236 0 0 0
          2.0367031097 -1.1015133858 4.9085745246e-08 0 0 0
          0 0 0 3.8431715965 -2.7135453224 0.80332350731
          8.9688930511 -5.2984852791 -1.86109972 10.980128288 -6.4368281364 -1.0760574341
          1.8972988129 -0.6255351305 -1.1855039597 2.5768713951 -1.5918562412 0.6863541007
          8.9624109268 -5.4915595055 -0.94878804684 1.6110961437 -0.77657109499 -0.48683619499
          4.5310773849 -2.7531645298 1.6408084491e-07 7.5363879204 -4.449429512 1.1054192781
          0 0 0 0 0 0
          3.7543799877 -1.9887874126 -1.3555026054 7.2330327034 -4.5024418831 -1.6171671152
          10.948308945 -6.5145440102 3.7528067764e-07 5.8574333191 -3.4799802303 0.96699225903
          7.2193651199 -4.6933693886 -0.82517802715 2.0486829281 -1.0689396858 0.58961975574
          8.9331350327 -5.5598487854 3.5578912616e-07 3.629914999 -2.1787211895 -0.69679373503
          1.6012228727 -0.80570691824 3.7458150359e-08 0 0 0
          14.278206825 -8.5580253601 -2.0136051178 0 0 0
          11.89612484 -7.6386408806 -1.7792311907 4.6095190048 -2.6949911118 0.83839464188
          14.314378738 -8.740146637 -1.017696023 4.2552480698 -2.5123286247 2.0007553101
          0 0 0 0 0 0
          3.5647907257 -2.2346456051 1.4053802033e-07 7.192199707 -4.7565484047 3.2513159454e-07
          1.4492613077 -0.43487414718 -0.91654056311 11.933478355 -7.8198170662 -0.89772319794
          2.981544733 -1.4286315441 1.6803158522 5.7224049568 -3.8782021999 -1.3495589495
          0 0 0 10.980128288 -6.4368281364 1.0760581493
          1.2236948013 -0.58928579092 -0.37635678053 5.7062072754 -4.075407505 -0.69022351503
          8.9624118805 -5.4915595055 0.94878876209 1.6110961437 -0.77657103539 0.4868362844
          9.7329330444 -6.8411402702 -1.5429627895 2.8542575836 -1.6408878565 -1.0606091022
          14.313313484 -8.8038196564 6.0168014215e-07 7.6927428246 -4.1916971207 2.1306622028
          0 0 0 0 0 0
          9.7636318207 -7.0256695747 -0.7792609334 6.0151205063 -3.282656908 1.8937171698
          11.935450554 -7.8828873634 5.6433594864e-07 2.7507710457 -1.8361310959 -0.54465264082
          2.3918704987 -0.92116206884 1.4477626085 1.2150856256 -0.61856287718 2.6326805624e-08
          5.6813149452 -4.1369972229 2.8953922993e-07 7.2193655968 -4.6933693886 0.82517874241
          3.6299152374 -2.1787209511 0.69679403305 9.7635717392 -7.0879225731 5.1937973922e-07
          4.7533226013 -2.5099856853 1.6303020716 2.698769331 -1.8917348385 1.1644166875e-07
          7.7581110001 -6.1935844421 -1.2934602499 14.314379692 -8.740146637 1.0176972151
          10.992007256 -6.2331156731 2.1063418388 0 0 0
          17.513183594 -11.226204872 -1.9399973154 0 0 0
          0 0 0 4.3494253159 -3.4352433681 -1.0676717758
          7.7801938057 -6.3839144707 -0.65378051996 17.554279327 -11.397571564 -0.97245359421
          14.764567375 -10.323774338 -1.7109861374 11.933479309 -7.8198170662 0.89772433043
          1.0139815807 -0.30976754427 -0.64210873842 0 0 0
          8.9688940048 -5.2984852791 1.8611005545 1.8972990513 -0.6255350709 1.1855040789
          4.3302297592 -3.6377544403 -0.5453826189 1.2236948013 -0.58928579092 0.37635684013
          0.85044175386 -0.46367710829 -0.26363497972 5.7062077522 -4.075407505 0.69022411108
          14.805303574 -10.497610092 -0.85763394833 9.7636318207 -7.0256690979 0.77926194668
          7.7786326408 -6.4463276863 4.7028348149e-07 17.564163208 -11.455891609 8.4463920302e-07
          1.9920413494 -1.4229495525 -0.75792938471 2.7507710457 -1.8361309767 0.54465293884
          0 0 0 12.197902679 -9.5409917831 -1.4815670252
          3.7543804646 -1.9887872934 1.3555029631 7.2330336571 -4.5024418831 1.6171678305
          4.3089871407 -3.6994183064 2.5142824711e-07 14.816204071 -10.556452751 7.8979996943e-07
          0.84276634455 -0.49295404553 1.6840791872e-08 1.9099675417 -1.6173734665 -0.38797923923
          12.233218193 -9.7180500031 -0.74254924059 14.278207779 -8.5580253601 2.0136063099
          0 0 0 5.9142842293 -5.7077236176 -1.0315796137
          11.89612484 -7.6386404037 1.7792323828 1.8711367846 -1.6717162132 9.2672770791e-08
          5.9264969826 -5.9022073746 -0.52110940218 12.242357254 -9.7778587341 7.3145594115e-07
          1.4492615461 -0.43487408757 0.91654068232 7.7801938057 -6.3839139938 0.65378147364
          9.7897167206 -8.8938550949 -1.2440394163 17.554279327 -11.39757061 0.97245526314
          3.0303881168 -3.1517894268 -0.77706414461 5.7224054337 -3.8782019615 1.3495595455
          0 0 0 4.3302302361 -3.6377544403 0.54538309574
          9.8173780441 -9.075255394 -0.62379127741 0.85044181347 -0.46367707849 0.26363503933
          3.0082538128 -3.3528368473 -0.39509892464 14.805303574 -10.497610092 0.85763555765
          9.7329339981 -6.8411402702 1.5429638624 2.854257822 -1.6408878565 1.0606094599
          20.678857803 -14.248577118 -1.884378314 0 0 0
          5.923576355 -5.9645853043 4.1974527676e-07 17.562721252 -13.367213249 -1.6594130993
          20.714624405 -14.415860176 -0.94191706181 0 0 0
          0.5639718771 -0.23402172327 -0.37589624524 17.597574234 -13.53616333 -0.82988840342
          9.8240318298 -9.1355838776 6.7013127136e-07 0.46517413855 -0.38319435716 -0.15666735172
          1.9099676609 -1.6173733473 0.38797944784 2.9910402298 -3.4123630524 2.1457314858e-07
          12.233218193 -9.7180500031 0.74255073071 14.606677055 -12.601989746 -1.4354441166
          1.106185317 -1.3205040693 -0.46021643281 20.725673676 -14.47166729 1.0897452967e-06
          0 0 0 1.0509672165 -1.5075466633 -0.2337628901
          14.637228966 -12.773028374 -0.71758675575 17.608966827 -13.592784882 1.0203117426e-06
          0.46563333273 -0.41090098023 1.947335182e-09 7.7581119537 -6.1935844421 1.2934612036
          7.4994735718 -8.3948469162 -0.99890416861 17.513183594 -11.226204872 1.9399989843
          0 0 0 4.135266304 -5.3823251724 -0.76382726431
          5.9264969826 -5.9022073746 0.52111023664 4.3494257927 -3.4352431297 1.0676722527
          14.764568329 -10.323774338 1.7109878063 1.0139818192 -0.30976745486 0.64210885763
          4.1362738609 -5.5749759674 -0.38436126709 7.5175123215 -8.5787916183 -0.50050681829
          9.8173780441 -9.075255394 0.62379264832 3.0082540512 -3.3528368473 0.39509937167
          14.647169113 -12.830548286 9.5046067372e-07 1.0303640366 -1.563293457 6.7119657388e-08
          11.7885952 -11.964266777 -1.2067416906 1.7016072273 -3.016484499 -0.48852527142
          1.992041707 -1.4229494333 0.75792962313 20.714624405 -14.415860176 0.94191926718
          12.197903633 -9.5409917831 1.4815685749 0 0 0
          7.5215010643 -8.6390590668 6.0932109136e-07 4.131857872 -5.6354718208 3.7132292618e-07
          11.813055992 -12.137969017 -0.60330206156 17.597574234 -13.53616333 0.82989042997
          1.6731116772 -3.2039310932 -0.24708028138 0.46517422795 -0.38319432735 0.15666736662
          5.9142847061 -5.7077236176 1.0315804482 11.820879936 -12.195907593 8.8005918997e-07
          14.637228966 -12.773028374 0.7175886631 1.0509673357 -1.5075465441 0.23376303911
          1.6565752029 -3.2591121197 1.7830738841e-07 23.771165848 -17.629955292 -1.83890903
          0 0 0 23.801914215 -17.794439316 -0.91863781214
          9.7897176743 -8.8938541412 1.2440407276 20.291301727 -16.769264221 -1.6177134514
          3.0303885937 -3.1517891884 0.77706462145 5.2750043869 -8.0477209091 -0.75021845102
          0.072600364685 -0.27384439111 -0.12307275087 4.1362738609 -5.5749759674 0.38436201215
          7.5175127983 -8.5787916183 0.50050801039 0 0 0
          20.321056366 -16.934457779 -0.8087336421 5.2822031975 -8.2288675308 -0.37482258677
          0.013815490529 -0.41748553514 -0.055978506804 9.076043129 -11.463770866 -0.97346353531
          2.3515541553 -5.2093777657 -0.4990836978 20.678859711 -14.248577118 1.8843804598
          0 0 0 17.562721252 -13.367213249 1.6594151258
          23.811721802 -17.848981857 1.322981575e-06 2.3403534889 -5.3892221451 -0.25151115656
          9.0929508209 -11.638617516 -0.48630559444 0.56397199631 -0.23402163386 0.37589630485
          16.957361221 -16.021585464 -1.3987663984 0.12373605371 -1.3535242081 -0.19193613529
          0 0 0 11.813056946 -12.137969017 0.6033038497
          1.6731119156 -3.2039310932 0.24708065391 20.331083298 -16.989570618 1.2400500964e-06
          5.2832555771 -8.2870988846 5.5148564115e-07 16.983348846 -16.187732697 -0.69890964031
          0.075600489974 -1.5209248066 -0.098964974284 0.006043090485 -0.45268660784 -1.9092373904e-08
          14.606677055 -12.601988792 1.4354460239 1.1061856747 -1.3205039501 0.46021661162
          9.0982751846 -11.696230888 8.1057942225e-07 2.333978653 -5.445997715 3.2557258578e-07
          7.4994740486 -8.3948469162 0.9989054203 16.992204666 -16.243461609 1.1611731452e-06
          0.058085542172 -1.5765936375 3.6997700903e-08 4.1352667809 -5.3823246956 0.76382803917
          23.801914215 -17.794439316 0.91864043474 13.747356415 -15.39503479 -1.1769551039
          0 0 0 0.256714046 -3.0177633762 -0.23639392853
          13.768418312 -15.562656403 -0.58804291487 20.321058273 -16.934455872 0.8087361455
          0.013815588318 -0.41748547554 0.055978488177 5.2822031975 -8.2288675308 0.37482368946
          0.22342811525 -3.1804664135 -0.12097148597 11.788596153 -11.964266777 1.2067434788
          6.4285311699 -11.105475426 -0.73851376772 9.0929508209 -11.638617516 0.48630720377
          1.7016077042 -3.0164842606 0.48852568865 2.3403539658 -5.3892221451 0.25151181221
          3.05849123 -7.8480772972 -0.506331563 6.4370646477 -11.276908875 -0.36795866489
          13.775550842 -15.618512154 1.0840651612e-06 16.983348846 -16.187730789 0.69891196489
          0.075600668788 -1.5209246874 0.098965063691 3.0548045635 -8.0169010162 -0.25273352861
          0.20858253539 -3.2315969467 1.4117952674e-07 26.792898178 -21.367294312 -1.7981206179
          0 0 0 -0.34952792525 -0.52285081148 0.05472201854
          6.4397115707 -11.332402229 7.4615167023e-07 10.633681297 -14.896914482 -0.95230126381
          22.955465317 -20.526060104 -1.5809941292 23.771167755 -17.629955292 1.8389116526
          0 0 0 0 0 0
          3.0533256531 -8.0713186264 4.9872619456e-07 0.47989624739 -5.1717324257 -0.26773178577
          26.820482254 -21.528915405 -0.8983117938 10.648928642 -15.064776421 -0.47539189458
          22.98210144 -20.687767029 -0.79046946764 20.291303635 -16.769262314 1.6177159548
          -0.3888681531 -0.63370341063 0.023794528097 5.2750048637 -8.0477209091 0.75021952391
          0.072600543499 -0.2738443017 0.12307279557 0.46175611019 -5.3290987015 -0.13521054387
          13.768418312 -15.562656403 0.58804512024 0.22342836857 -3.1804661751 0.120971784
          19.253952026 -19.794683456 -1.3668572903 9.0760440826 -11.463770866 0.97346514463
          2.3515548706 -5.2093777657 0.49908438325 0 0 0
          -0.69555789232 -1.6072962284 -0.025518780574 26.82906723 -21.582406998 1.5342145616e-06
          -0.4109107852 -0.67652803659 -3.3036116065e-08 10.654056549 -15.120090485 1.0106381296e-06
          19.277088165 -19.956624985 -0.68302464485 16.957363129 -16.021585464 1.3987687826
          22.990955353 -20.741632462 1.4423617358e-06 0.12373640388 -1.3535240889 0.1919362694
          0.45549041033 -5.3817515373 2.8255806228e-07 -0.73816597462 -1.7292958498 -0.0036562501919
          6.4370646477 -11.276908875 0.36796015501 3.0548048019 -8.0169010162 0.25273454189
          3.802236557 -10.886832237 -0.50881582499 19.284931183 -20.010864258 1.3556474414e-06
          -0.75156664848 -1.7790083885 1.4957279859e-08 3.8025622368 -11.046619415 -0.25325763226
          15.666818619 -19.179105759 -1.1509073973 0 0 0
          -0.92241728306 -3.2216544151 -0.07589584589 26.820482254 -21.528915405 0.89831489325
          -0.38886806369 -0.63370335102 -0.0237945728 10.648929596 -15.064776421 0.47539392114
          15.685729027 -19.341789246 -0.57504183054 13.747357368 -15.395033836 1.1769573689
          22.98210144 -20.687765121 0.79047238827 7.5838832855 -14.531757355 -0.72688776255
          0.78914707899 -7.7792224884 -0.29099494219 0.25671455264 -3.0177631378 0.23639425635
          -0.95260310173 -3.3373672962 -0.029791319743 0.46175640821 -5.3290982246 0.13521112502
          7.5928373337 -14.69592762 -0.36189717054 0.77817058563 -7.9275574684 -0.14497646689
          3.8027632236 -11.098478317 6.8853347557e-07 6.4285316467 -11.105474472 0.73851525784
          19.277088165 -19.956624985 0.68302738667 3.0584919453 -7.8480768204 0.50633257627
          15.692124367 -19.395935059 1.2746244238e-06 -0.7381657958 -1.7292957306 0.0036562974565
          -0.9627302289 -3.3797371387 1.1447833259e-07 7.5957684517 -14.749015808 9.4173219622e-07
          0.7752045393 -7.9782390594 4.5166504492e-07 -1.0314130783 -5.3172597885 -0.10988601297
          12.169778824 -18.684514999 -0.93296682835 26.792898178 -21.367294312 1.7981237173
          0 0 0 3.8025624752 -11.046619415 0.25325900316
          -0.34952774644 -0.52285069227 -0.054721992463 -1.0555946827 -5.4327201843 -0.047988619655
          10.633682251 -14.896913528 0.95230329037 22.955465317 -20.526060104 1.5809969902
          12.183935165 -18.846952438 -0.46573498845 29.748142242 -25.454753876 -1.7598078251
          0 0 0 0.47989684343 -5.1717324257 0.26773241162
          29.77381134 -25.613279343 -0.87927383184 -0.21122683585 -0.96597391367 0.042964845896
          25.560272217 -24.631696701 -1.5469477177 15.685729027 -19.341789246 0.57504433393
          0 0 0 -0.95260286331 -3.3373670578 0.029791561887
          25.585050583 -24.789997101 -0.77355200052 -0.22515112162 -0.99069416523 0.03172621876
          7.5928378105 -14.695926666 0.36189904809 0.77817094326 -7.9275574684 0.14497737586
          19.253952026 -19.794683456 1.3668599129 -1.0646244287 -5.475048542 2.5081459398e-07
          12.188694954 -18.900403976 1.1970645346e-06 -0.69555753469 -1.6072961092 0.025518879294
          4.5665502548 -14.299627304 -0.50630885363 -0.61170607805 -2.1147909164 0.026832731441
          21.500801086 -23.915485382 -1.3374694586 1.1536129713 -10.794659615 -0.30511653423
          29.781602859 -25.665721893 1.7143935338e-06 0 0 0
          4.5693631172 -14.452765465 -0.25191026926 25.593162537 -24.842687607 1.6143163748e-06
          -0.23838794231 -1.0186109543 -8.756855685e-09 21.522260666 -24.073608398 -0.66841953993
          -0.64394927025 -2.155962944 0.024158038199 1.1476204395 -10.935325623 -0.15194238722
          3.8022372723 -10.886831284 0.50881719589 4.5701231956 -14.502490044 8.7917521796e-07
          -1.0494867563 -7.878054142 -0.14001117647 -1.0555944443 -5.4327201843 0.047989133745
          8.7355737686 -18.314346313 -0.71457368135 21.529459 -24.126531601 1.5225738252e-06
          15.666819572 -19.179103851 1.1509099007 12.183936119 -18.846952438 0.46573737264
          1.1457768679 -10.98404026 6.3870407985e-07 -0.66591072083 -2.1829805374 3.9303959198e-08
          -0.92241686583 -3.2216544151 0.075896136463 29.773813248 -25.613279343 0.87927728891
          17.549135208 -23.310522079 -1.126786828 -1.0680212975 -7.9905347824 -0.064474843442
          -1.0504598618 -3.6352593899 0.0096812443808 8.744767189 -18.473056793 -0.35575699806
          7.5838842392 -14.531757355 0.72688961029 0.78914773464 -7.7792224884 0.29099586606
          0 0 0 -1.0799536705 -3.6864805222 0.0092934248969
          25.585050583 -24.789997101 0.77355521917 -0.22515106201 -0.99069410563 -0.031726222485
          17.566781998 -23.468948364 -0.5630427599 -1.0738991499 -8.0338783264 4.1462936906e-07
          8.7478170395 -18.524263382 1.1239533251e-06 4.5693635941 -14.452765465 0.2519120574
          17.572698593 -23.521640778 1.4361626199e-06 -1.0983690023 -3.7094628811 1.306131594e-07
          21.522260666 -24.073608398 0.66842257977 -0.64394915104 -2.1559627056 -0.024157946929
          1.1476207972 -10.935325623 0.15194366872 -1.0314124823 -5.3172597885 0.10988656431
          12.169779778 -18.684514999 0.93296921253 13.683511734 -22.820503235 -0.9146476388
          29.74814415 -25.454753876 1.7598111629 0 0 0
          -1.4219762087 -5.6309709549 -0.011657390743 -0.21122670174 -0.96597385406 -0.042964790016
          25.560274124 -24.631696701 1.5469508171 -1.0680209398 -7.9905343056 0.064475685358
          8.744767189 -18.473056793 0.35575923324 13.696998596 -22.978376389 -0.45661312342
          1.5536849499 -14.188774109 -0.31078270078 -1.4450682402 -5.6972761154 -0.0031790526118
          -1.0799535513 -3.6864805222 -0.009293156676 17.566781998 -23.468948364 0.56304562092
          1.5516922474 -14.324187279 -0.15495365858 5.3383889198 -18.070695877 -0.50042676926
          -0.99767333269 -10.861561775 -0.16519466043 32.640621185 -29.885597229 -1.723238349
          0 0 0 28.10959816 -29.079710007 -1.5146511793
          4.5665507317 -14.299627304 0.50631064177 -0.61170583963 -2.114790678 -0.02683259733
          21.500801086 -23.915485382 1.3374724388 -1.0094257593 -10.969023705 -0.077497668564
          5.3420534134 -18.218727112 -0.24936510623 1.1536136866 -10.794659615 0.30511784554
          32.664997101 -30.040966034 -0.86105692387 0 0 0
          -1.4541658163 -5.7256360054 2.5274732707e-07 13.701526642 -23.030277252 1.3556276599e-06
          0.0019751696382 -1.1269071102 -0.0014972944045 28.133136749 -29.234697342 -0.75745838881
          0.0015995993745 -1.1291269064 -0.00065061979694 1.5506644249 -14.371295929 8.2763574483e-07
          23.701097488 -28.377889633 -1.3096495867 -1.0130953789 -11.012761116 6.0013070424e-07
          5.3428030014 -18.266721725 1.059621809e-06 32.672306061 -30.092346191 1.8584719328e-06
          0 0 0 0.0035471415613 -2.3463599682 -0.0019106982509
          23.721494675 -28.532459259 -0.65455710888 28.14078331 -29.286262512 1.7517761535e-06
          -1.0494860411 -7.878054142 0.14001204073 8.7355737686 -18.314346313 0.71457588673
          0.0015980484895 -1.1464170218 1.8447131822e-08 0.0033077350818 -2.3572177887 -0.00099944463
          17.549135208 -23.310522079 1.1267896891 -1.0504596233 -3.6352591515 -0.0096809444949
          -1.6777524948 -8.1336317062 -0.052478641272 9.880235672 -22.447994232 -0.70225286484
          -1.4450680017 -5.6972761154 0.0031795674004 13.696998596 -22.978376389 0.45661583543
          -1.6982911825 -8.2023763657 -0.018485907465 9.8893384933 -22.602155685 -0.34976229072
          1.551692605 -14.324187279 0.15495531261 23.72829628 -28.584173203 1.6538019736e-06
          0.0032317643054 -2.3760924339 8.0528224089e-08 19.395757675 -27.783498764 -1.1038472652
          -1.0094254017 -10.969023705 0.077498875558 5.3420538902 -18.218727112 0.24936722219
          32.664997101 -30.040966034 0.86106067896 0 0 0
          0.0049440800212 -3.8742797375 -0.0022105139215 19.412635803 -27.938077927 -0.55160671473
          28.133136749 -29.234697342 0.75746190548 0.0047712181695 -3.8948509693 -0.0011295656441
          -1.7027803659 -8.229968071 4.0030715809e-07 9.8923931122 -22.651968002 1.2814692809e-06
          0.0015996430302 -1.1291269064 0.00065066682873 23.721494675 -28.532459259 0.65456038713
          19.418270111 -27.989477158 1.5629107111e-06 0.0047299661674 -3.9141721725 1.7765569282e-07
          13.683511734 -22.820503235 0.91465032101 1.9785906076 -17.943187714 -0.31170397997
          0.0033078219276 -2.3572177887 0.00099961599335 -1.4219757318 -5.6309709549 0.011657936499
          -0.88790178299 -14.22164917 -0.17644679546 1.9788470268 -18.074808121 -0.15551300347
          1.5536856651 -14.188774109 0.31078436971 -0.89325982332 -14.326444626 -0.083792172372
          -1.6982909441 -8.2023763657 0.018486723304 9.8893384933 -22.602155685 0.34976485372
          5.3383893967 -18.070695877 0.50042885542 -0.99767261744 -10.861560822 0.16519588232
          0.006119558122 -5.8379354477 -0.0025769665372 15.173897743 -27.299287796 -0.89701491594
          32.640621185 -29.885597229 1.7232420444 0 0 0
          28.10959816 -29.079710007 1.5146547556 0.0059252711944 -5.8746314049 -0.0012777002994
          1.9785422087 -18.120441437 1.0071912584e-06 -1.8102611303 -11.075126648 -0.093445584178
          6.1137070656 -22.194568634 -0.49469211698 15.186984062 -27.453069687 -0.44782677293
          0.0019752830267 -1.1269071102 0.0014973819489 -0.89596164227 -14.369577408 7.8707978446e-07
          19.412635803 -27.938077927 0.55160981417 0.0047713303939 -3.8948509693 0.0011299239704
          6.1181459427 -22.338823318 -0.24672201276 -1.8256009817 -11.149893761 -0.035534985363
          23.701097488 -28.377889633 1.3096528053 0.0058947694488 -5.8990054131 3.0385945138e-07
          15.191370964 -27.503631592 1.4783845472e-06 0.0035473473836 -2.3463599682 0.0019108977867
          6.1195669174 -22.385944366 1.216425062e-06 35.473377228 -34.653072357 -1.6881529093
          0 0 0 -1.8313388824 -11.183076859 5.8160458138e-07
          35.496761322 -34.805358887 -0.84354561567 0 0 0
          1.9788473845 -18.074808121 0.15551501513 30.606262207 -33.86359024 -1.4837036133
          -1.677752018 -8.1336317062 0.052479505539 9.8802366257 -22.447994232 0.70225542784
          0.21502442658 -0.96633028984 -0.045829270035 -0.89325946569 -14.326443672 0.083793744445
          30.628864288 -34.015411377 -0.74200648069 0.22831857204 -0.99137109518 -0.032917626202
          19.395757675 -27.783498764 1.1038503647 35.503749847 -34.855709076 1.9656938548e-06
          0.0059253834188 -5.8746314049 0.0012783013517 25.856937408 -33.175674438 -1.2829493284
          0.61851376295 -2.1158185005 -0.03017978929 15.186984062 -27.453069687 0.44782972336
          0 0 0 11.014180183 -26.927297592 -0.69031083584
          0.007026296109 -8.3253545761 -0.0030410729814 0.0049443524331 -3.8742797375 0.002210888546
          0.65044230223 -2.1575164795 -0.025836069137 25.876590729 -33.32692337 -0.64122802019
          30.636190414 -34.06590271 1.8531967498e-06 6.1181459427 -22.338823318 0.24672444165
          0.0067952196114 -8.3674268723 -0.0014822068624 11.023280144 -27.077291489 -0.34392133355
          -1.8256007433 -11.149893761 0.035536151379 0.24157348275 -1.0193611383 4.0162230874e-08
          -0.72871261835 -17.943500519 -0.17821571231 25.883134842 -33.377513885 1.7498481384e-06
          1.9785913229 -17.943187714 0.31170597672 0.67228615284 -2.184646368 1.1433384373e-07
          0.0067547732033 -8.3813037872 4.5051868369e-07 -0.73014932871 -18.047302246 -0.085038587451
          11.026371002 -27.125873566 1.4013186274e-06 -0.88790106773 -14.22164917 0.17644836009
          35.496761322 -34.805358887 0.84354954958 21.207399368 -32.59198761 -1.0816866159
          -1.8483650684 -14.368538857 -0.10207293183 0 0 0
          1.0597198009 -3.6373851299 -0.013209771365 2.4261553288 -22.051856995 -0.31198269129
          1.0889886618 -3.6893050671 -0.011051759124 21.223798752 -32.743030548 -0.54054135084
          30.628864288 -34.015411377 0.74201017618 -1.8563001156 -14.445962906 -0.042235184461
          2.4280395508 -22.180898666 -0.15519484878 0.22831860185 -0.99137103558 0.032917708158
          0.0061198528856 -5.8379349709 0.002577559324 15.173898697 -27.299287796 0.89701783657
          -0.7319598794 -18.089258194 9.6125040727e-07 -1.8102606535 -11.075126648 0.093446753919
          6.1137075424 -22.194568634 0.49469453096 21.229265213 -32.793251038 1.6539823946e-06
          25.876590729 -33.32692337 0.64123147726 -1.8630646467 -14.47998333 7.5996024407e-07
          0.65044236183 -2.1575164795 0.025836305693 1.1073077917 -3.7124087811 2.1252577653e-07
          0.0067952815443 -8.3674268723 0.0014830937143 11.023280144 -27.077291489 0.34392413497
          2.4289093018 -22.225721359 1.1598863239e-06 6.8935408592 -26.668109894 -0.48919671774
          0.0075832838193 -11.247094154 -0.0035207129549 6.8985328674 -26.808794022 -0.2438928932
          0.0073406375013 -11.314975739 -0.0017156273825 35.473377228 -34.653072357 1.688156724
          0 0 0 -0.73014903069 -18.047302246 0.08504050225
          1.4331851006 -5.6345844269 0.0078636901453 16.639762878 -32.114620209 -0.87972939014
          1.4560301304 -5.701731205 0.0012985814828 30.606262207 -33.86359024 1.4837073088
          0.21502453089 -0.96633023024 0.045829385519 16.65268898 -32.264667511 -0.43921673298
          21.223798752 -32.743030548 0.5405446291 -1.8562998772 -14.445962906 0.042236696929
          1.088988781 -3.6893048286 0.011052184738 2.4280397892 -22.180898666 0.15519715846
          6.9002599716 -26.854923248 1.3324249721e-06 0.0073030479252 -11.34008503 6.0227552012e-07
          25.856937408 -33.175674438 1.2829527855 0.61851394176 -2.1158185005 0.030180037022
          11.014181137 -26.927297592 0.69031363726 1.4650508165 -5.7301983833 3.2712048892e-07
          0.0070265382528 -8.3253545761 0.0030419183895 16.657014847 -32.31401825 1.56525698e-06
          38.248908997 -39.750652313 -1.6544036865 0 0 0
          -0.7287120223 -17.943500519 0.17821760476 6.8985328674 -26.808794022 0.2438955456
          0 0 0 33.052387238 -38.976966858 -1.4538711309
          -1.8295273781 -18.036645889 -0.096392631531 0.0073406249285 -11.314975739 0.0017168126069
          0.35266435146 -0.52383005619 -0.056716762483 -0.53447723389 -22.025064468 -0.176440835
          38.271472931 -39.900020599 -0.82668828964 21.207399368 -32.591983795 1.0816898346
          33.074222565 -39.125816345 -0.72709870338 0.39173781872 -0.63510400057 -0.024602949619
          -1.8483645916 -14.368538857 0.10207441449 -1.8333398104 -18.115571976 -0.041318420321
          1.0597199202 -3.6373848915 0.013210191391 12.13489151 -31.744983673 -0.67824906111
          1.4560301304 -5.7017307281 -0.0012979384046 2.4261558056 -22.051855087 0.31198495626
          1.6904220581 -8.1389436722 0.048256754875 16.652690887 -32.264667511 0.43921986222
          -0.53456825018 -22.128627777 -0.084438621998 1.71065557 -8.2087049484 0.016398515552
          12.144198418 -31.891212463 -0.3379933238 27.969713211 -38.302627563 -1.257090807
          38.278232574 -39.949394226 2.0352886168e-06 0.70109832287 -1.6093372107 0.023472374305
          0 0 0 27.98882103 -38.450798035 -0.62830889225
          0.74362105131 -1.7318832874 0.0026474248152 33.081302643 -39.175308228 1.9174333374e-06
          2.8949117661 -26.513887405 -0.31147241592 -1.8392882347 -18.149522781 9.2136730245e-07
          -0.53592354059 -22.169446945 1.1063578995e-06 0.0077478475869 -14.480296135 -0.0040293708444
          0.41390573978 -0.67800909281 5.388760016e-08 2.897503376 -26.640325546 -0.15448527038
          12.147348404 -31.938657761 1.4835344473e-06 0.0074842064641 -14.553795815 -0.001966556767
          1.7150731087 -8.2364091873 4.5384666691e-07 6.8935413361 -26.668109894 0.48919934034
          27.99518013 -38.500354767 1.8082401994e-06 0.0075834249146 -11.247094154 0.0035218487028
          0.75698041916 -1.7817052603 1.2093539681e-07 22.984333038 -37.729808807 -1.0600153208
          38.271472931 -39.900020599 0.82669240236 2.8986904621 -26.684148788 1.270516691e-06
          0.9298517704 -3.2253096104 0.073903143406 1.433185339 -5.63458395 -0.0078630745411
          0.0074449554086 -14.580091476 7.4611887158e-07 16.639762878 -32.114616394 0.87973248959
          0 0 0 23.000452042 -37.877616882 -0.52971422672
          0.95996570587 -3.3416261673 0.028810251504 33.074222565 -39.125816345 0.72710251808
          -1.833339572 -18.115571976 0.041320249438 -0.53456795216 -22.128627777 0.08444082737
          0.39173784852 -0.63510400057 0.02460305579 12.144198418 -31.891212463 0.33799627423
          1.71065557 -8.2087049484 -0.016397628933 27.98882103 -38.450798035 0.62831246853
          23.005821228 -37.926757812 1.7079046302e-06 7.672642231 -31.483016968 -0.48257482052
          1.8238577843 -11.082163811 0.08862952888 0.97003746033 -3.3841290474 1.9894223158e-07
          0.74362111092 -1.7318832874 -0.0026471810415 1.8388441801 -11.158147812 0.033157259226
          2.8975036144 -26.640325546 0.15448780358 7.6782426834 -31.620443344 -0.2406758219
          0.0074841305614 -14.553795815 0.0019680282567 18.08007431 -37.260097504 -0.86250525713
          38.248908997 -39.750652313 1.6544077396 0 0 0
          1.0403333902 -5.3229751587 0.10788016021 18.09303093 -37.40675354 -0.43062829971
          33.052387238 -38.976966858 1.4538749456 1.0644216537 -5.4391222 0.04699754715
          -1.8295269012 -18.036645889 0.09639441967 7.680100441 -31.665632248 1.4095905954e-06