<?xml version="1.0"?>
<VTKFile type="UnstructuredGrid" version="0.1" byte_order="LittleEndian" header_type="UInt32" compressor="vtkZLibDataCompressor">
  <UnstructuredGrid>
    <Piece NumberOfPoints="6405" NumberOfCells="4800">
      <PointData>
        <DataArray type="Float32" Name="DISPLACEMENT" NumberOfComponents="3" ComponentName0="X-DISPLACEMENT" ComponentName1="Y-DISPLACEMENT" ComponentName2="Z-DISPLACEMENT" format="ascii" RangeMin="0" RangeMax="321.23371973">
          0 0 0 0 0 0
          2.5353887081 -1.5018510818 -1.1618514061 0 0 0
          1.5102940798 -0.85664230585 -0.81397134066 0 0 0
          2.3290469646 -1.7046333551 -0.45758530498 1.3133574724 -1.0310964584 -0.33109173179
          0 0 0 4.578119278 -3.0305578709 -1.1790626049
          0 0 0 4.5196666718 -3.2604842186 -0.60274672508
          3.0369112492 -2.5378651619 -0.90787428617 0 0 0
          0 0 0 2.3411986828 -1.7643100023 -1.1994659133e-07
          0.88537973166 -0.55035018921 -0.50203162432 1.3062310219 -1.06084764 -3.4185934084e-08
          2.969606638 -2.7265725136 -0.46185800433 0.75457668304 -0.71851032972 -0.20304654539
          4.4704408646 -3.3230850697 -2.1333947586e-07 1.8260850906 -2.1697468758 -0.62233030796
          0 0 0 2.9299666882 -2.7834351063 -5.9591062751e-08
          1.7368468046 -2.3406898975 -0.3180026114 0 0 0
          6.373524189 -5.1011900902 -1.0829255581 0 0 0
          0.75341904163 -0.74149316549 4.5094626699e-08 0 0 0
          0 0 0 2.3290469646 -1.7046335936 0.45758509636
          4.4446339607 -4.6541261673 -0.87660390139 6.3959212303 -5.2629704475 -0.55076009035
          0.091738790274 -0.40940183401 -0.14978304505 1.3133574724 -1.0310965776 0.33109167218
          4.4579744339 -4.8045535088 -0.44542098045 -0.025385402143 -0.59984886646 -0.086054258049
          1.704962492 -2.3871991634 9.4329941192e-08 4.5196666718 -3.2604846954 0.60274630785
          0 0 0 0 0 0
          0.40212753415 -1.9727822542 -0.37185591459 2.8184370995 -4.3502016068 -0.68338787556
          6.3777680397 -5.3193764687 -3.0312526178e-07 2.969606638 -2.7265729904 0.46185788512
          2.7883679867 -4.4800410271 -0.34842774272 0.75457668304 -0.71851050854 0.20304663479
          4.4475073814 -4.8532361984 -8.1846074806e-08 0.29954960942 -2.1291861534 -0.19639641047
          -0.040781334043 -0.62714284658 1.3680910627e-07 0 0 0
          7.9722466469 -7.4464421272 -0.94527161121 0 0 0
          5.7659182549 -7.0455312729 -0.8079470396 1.7368468046 -2.340690136 0.31800279021
          8.0214986801 -7.5557112694 -0.47938632965 2.5353887081 -1.5018514395 1.1618511677
          0 0 0 0 0 0
          0.27932742238 -2.1764614582 2.5272453286e-07 2.77552104 -4.5234146118 1.4223165579e-07
          -0.42969349027 -0.67231422663 -0.13678981364 5.8073835373 -7.15178442 -0.40755307674
          1.5102940798 -0.85664260387 0.81397128105 1.08779037 -4.1403126717 -0.54993599653
          0 0 0 6.3959212303 -5.2629709244 0.5507594943
          -0.57598417997 -0.75417393446 -0.062314227223 1.0359851122 -4.2434515953 -0.26788941026
          4.4579744339 -4.8045539856 0.44542083144 -0.025385484099 -0.59984898567 0.086054511368
          3.8254971504 -6.749958992 -0.67990678549 -0.3659671247 -2.1889050007 -0.40673413873
          8.0208711624 -7.5941581726 -3.8792612145e-07 4.578119278 -3.0305585861 1.1790621281
          0 0 0 0 0 0
          3.8379580975 -6.8485002518 -0.34369435906 3.0369112492 -2.5378656387 0.90787422657
          5.8130831718 -7.1890978813 -1.0846205356e-07 -0.40697497129 -2.2532629967 -0.16727896035
          0.88537979126 -0.55035054684 0.50203174353 -0.585942626 -0.82557111979 3.3956433754e-07
          1.0184602737 -4.2805762291 3.8414970049e-07 2.7883679867 -4.4800415039 0.34842804074
          0.29954954982 -2.1291866302 0.19639693201 3.8385362625 -6.8851480484 1.7787508e-07
          1.8260852098 -2.1697473526 0.62233054638 -0.40363457799 -2.3176543713 5.4203695754e-07
          2.0063107014 -6.5228734016 -0.57670968771 8.0214986801 -7.5557117462 0.47938552499
          6.373524189 -5.1011910439 1.0829248428 0 0 0
          9.398223877 -9.9543495178 -0.8315525651 0 0 0
          0 0 0 -0.035921707749 -4.1609578133 -0.42391002178
          1.9974281788 -6.6149535179 -0.28147685528 9.4480857849 -10.0281353 -0.41864109039
          7.0048084259 -9.5797929764 -0.73584252596 5.8073835373 -7.1517848969 0.40755286813
          -1.3341116905 -0.90770357847 -0.15909656882 0 0 0
          4.4446339607 -4.654127121 0.87660372257 0.091738782823 -0.40940213203 0.14978329837
          -0.027300715446 -4.2566905022 -0.20611424744 -0.57598429918 -0.75417411327 0.062314875424
          -1.4103878736 -0.92950904369 -0.092078119516 1.0359851122 -4.2434520721 0.26789018512
          7.0497312546 -9.6561737061 -0.36914998293 3.8379580975 -6.8485007286 0.34369471669
          1.9802970886 -6.6431317329 5.0192670642e-07 9.4552364349 -10.054571152 -4.724194298e-07
          -1.3311697245 -2.4477875233 -0.36481061578 -0.4069750607 -2.2532632351 0.16728006303
          0 0 0 4.8493480682 -9.2672653198 -0.63918966055
          0.40212759376 -1.9727829695 0.37185648084 2.8184373379 -4.3502025604 0.68338817358
          -0.037861157209 -4.2887105942 7.4570056086e-07 7.0605931282 -9.683054924 -1.4741431187e-07
          -1.3394025564 -1.0051996708 6.9379882461e-07 -1.3438731432 -2.4872281551 -0.17006859183
          4.8734045029 -9.3460950851 -0.32021147013 7.9722466469 -7.4464430809 0.94527083635
          0 0 0 0.34818121791 -6.3928194046 -0.36920771003
          5.7659182549 -7.0455327034 0.80794680119 -1.3363363743 -2.5169239044 9.5250510412e-07
          0.35757082701 -6.5050930977 -0.20495781302 4.8771047592 -9.3729858398 1.8456108819e-07
          -0.42969337106 -0.67231470346 0.13679048419 1.997428298 -6.6149544716 0.28147783875
          2.8722174168 -9.0235815048 -0.52466011047 9.4480857849 -10.028136253 0.41864013672
          -1.0959700346 -4.4472575188 -0.39284515381 1.0877904892 -4.1403136253 0.549936831
          0 0 0 -0.02730082348 -4.2566914558 0.20611572266
          2.8806831837 -9.1081895828 -0.26458069682 -1.4103884697 -0.92950904369 0.092079497874
          -1.1296534538 -4.4950146675 -0.1685911864 7.0497312546 -9.6561746597 0.36914968491
          3.8254971504 -6.7499604225 0.67990714312 -0.36596703529 -2.1889057159 0.40673524141
          10.687527657 -12.569861412 -0.74517214298 0 0 0
          0.35905462503 -6.5254263878 8.7876185262e-07 8.1645011902 -12.222126961 -0.67573565245
          10.729125977 -12.622094154 -0.37341704965 0 0 0
          -0.45822221041 -1.4081091881 0.16717790067 8.2018938065 -12.277983665 -0.33731436729
          2.8816537857 -9.1327724457 5.4334253718e-07 -0.47761625051 -1.4855114222 0.05567843467
          -1.3438733816 -2.4872283936 0.17007049918 -1.106929183 -4.5298309326 1.1430486211e-06
          4.8734045029 -9.3460960388 0.32021185756 5.848054409 -11.926134109 -0.59955585003
          -1.2262820005 -2.8534090519 0.043947383761 10.73769474 -12.640577316 -5.5897731954e-07
          0 0 0 -1.351526618 -2.9628894329 -0.030075266957
          5.8683686256 -11.982974052 -0.29791095853 8.2124385834 -12.297044754 -2.0077456497e-07
          -0.50505268574 -1.4983534813 6.4906765829e-07 2.0063109398 -6.5228743553 0.57671064138
          0.77124112844 -8.8659887314 -0.37916371226 9.398223877 -9.9543504715 0.83155161142
          0 0 0 -0.80444180965 -6.7064805031 -0.46011799574
          0.35757061839 -6.5050935745 0.20495954156 -0.035921737552 -4.1609587669 0.42391145229
          7.0048084259 -9.5797948837 0.73584222794 -1.3341118097 -0.90770417452 0.15909802914
          -0.86118817329 -6.7110095024 -0.18575049937 0.77232402563 -8.9588460922 -0.20138661563
          2.8806831837 -9.1081895828 0.2645817697 -1.1296536922 -4.4950151443 0.16859345138
          5.8739728928 -11.999568939 1.5847638224e-07 -1.3141528368 -2.9637138844 1.2203954611e-06
          3.6459436417 -11.715377808 -0.50974202156 -1.9376541376 -4.8877067566 -0.53630870581
          -1.3311697245 -2.4477884769 0.36481252313 10.729125977 -12.622095108 0.37341591716
          4.8493480682 -9.2672662735 0.63919001818 0 0 0
          0.79153007269 -8.9877557755 9.0162200195e-07 -0.82847362757 -6.7568354607 1.2389452877e-06
          3.6423983574 -11.763278961 -0.25594806671 8.2018938065 -12.277984619 0.33731395006
          -2.0393621922 -4.8213062286 -0.22860860825 -0.47761636972 -1.4855116606 -0.055677171797
          0.34818103909 -6.3928208351 0.36920937896 3.6445989609 -11.776632309 5.2711942544e-07
          5.8683686256 -11.982975006 0.29791128635 -1.3515270948 -2.9628896713 0.030077727512
          -2.0196835995 -4.837580204 1.5533731812e-06 11.864336967 -15.267163277 -0.68125933409
          0 0 0 11.896045685 -15.305028915 -0.34066602588
          2.8722171783 -9.0235834122 0.52466118336 9.2432336807 -14.949082375 -0.63081419468
          -1.0959701538 -4.4472589493 0.39284744859 -0.43278586864 -9.1893033981 -0.57026135921
          -0.45195609331 -1.7730487585 0.20281432569 -0.86118835211 -6.7110099792 0.18575298786
          0.77232378721 -8.9588470459 0.20138843358 0 0 0
          9.271736145 -14.989413261 -0.31387397647 -0.47213903069 -9.1519956589 -0.23972049356
          -0.45954310894 -1.8037157059 0.096065022051 1.3258897066 -11.582486153 -0.46242132783
          -1.5838462114 -7.2512817383 -0.7197278142 10.687527657 -12.569862366 0.74517095089
          0 0 0 8.1645011902 -12.222128868 0.67573523521
          11.903479576 -15.318356514 -6.4828901714e-07 -1.6388263702 -7.1257615089 -0.32898059487
          1.3010001183 -11.613685608 -0.22740001976 -0.45822185278 -1.4081095457 -0.16717672348
          6.7813830376 -14.690563202 -0.57584971189 -1.0518767834 -3.5376138687 0.12421029061
          0 0 0 3.642398119 -11.763279915 0.25594910979
          -2.0393624306 -4.8213067055 0.22861175239 9.2804317474 -15.002717018 -2.6616919513e-07
          -0.43578881025 -9.2006597519 1.3056924217e-06 6.7969756126 -14.727419853 -0.28496965766
          -1.1538882256 -3.5923478603 0.072612643242 -0.47572433949 -1.8178459406 6.9946105441e-07
          5.8480539322 -11.926136017 0.59955620766 -1.2262821198 -2.8534097672 -0.043945077807
          1.3028516769 -11.627168655 9.2330895995e-07 -1.6179330349 -7.1357331276 1.7157512957e-06
          0.77124089003 -8.8659906387 0.37916558981 6.8022184372 -14.737874985 1.1589451532e-07
          -1.186467886 -3.6131670475 1.4486334976e-06 -0.80444198847 -6.7064819336 0.46012055874
          11.896045685 -15.305028915 0.34066471457 4.4054293633 -14.523925781 -0.52711755037
          0 0 0 -1.8079509735 -5.3753328323 -0.12505057454
          4.4024238586 -14.542292595 -0.26264601946 9.271736145 -14.989414215 0.31387344003
          -0.45954313874 -1.8037159443 -0.096063710749 -0.47213917971 -9.1519966125 0.23972316086
          -2.0030903816 -5.4548192024 -0.15187577903 3.6459436417 -11.715379715 0.50974309444
          0.020265445113 -11.855063438 -0.65384852886 1.3010001183 -11.613686562 0.22740191221
          -1.937654376 -4.8877081871 0.53631186485 -1.6388267279 -7.1257619858 0.32898405194
          -1.1913763285 -9.7968826294 -0.84010249376 0.03134445101 -11.807696342 -0.2999458909
          4.4040660858 -14.549770355 5.1321063665e-07 6.7969756126 -14.727420807 0.28496989608
          -1.153888464 -3.5923480988 -0.072609826922 -1.1761083603 -9.6733875275 -0.39966842532
          -1.9799735546 -5.4215583801 2.0817451514e-06 12.951899529 -18.018007278 -0.63624072075
          0 0 0 -0.37267366052 -2.0699017048 0.18078406155
          0.07770831883 -11.846673965 1.3912440409e-06 2.0267822742 -14.423848152 -0.54240059853
          10.251333237 -17.721971512 -0.59735321999 11.864336014 -15.267165184 0.68125802279
          0 0 0 0 0 0
          -1.1433501244 -9.6793413162 1.8709897631e-06 -2.4556553364 -7.7347950935 -0.87952524424
          12.974629402 -18.047132492 -0.31793478131 2.0069565773 -14.412796974 -0.2646343708
          10.272391319 -17.75261116 -0.29692944884 9.2432336807 -14.949083328 0.63081365824
          -0.36109057069 -2.0659792423 0.084854058921 -0.43278598785 -9.1893043518 0.57026410103
          -0.45195555687 -1.7730491161 -0.20281299949 -2.4733052254 -7.6024036407 -0.46626722813
          4.4024238586 -14.542293549 0.26264706254 -2.0030910969 -5.4548196793 0.15187998116
          7.6609110832 -17.48383522 -0.55525845289 1.3258897066 -11.58248806 0.46242332458
          -1.5838465691 -7.2512831688 0.71973127127 0 0 0
          -0.87171244621 -4.0631337166 0.16599825025 12.980665207 -18.057266235 -7.4331040878e-07
          -0.37698248029 -2.0758905411 7.1716556249e-07 2.0006012917 -14.417489052 9.523757285e-07
          7.6754617691 -17.509023666 -0.27461662889 6.7813825607 -14.690565109 0.57584995031
          10.27890873 -17.762317657 -3.4618690847e-07 -1.0518764257 -3.537614584 -0.12420772016
          -2.4737672806 -7.5635290146 2.4419293823e-06 -0.94120913744 -4.0854105949 0.10015177727
          0.031344339252 -11.807697296 0.29994869232 -1.1761087179 -9.6733884811 0.39967218041
          -0.80025035143 -12.471792221 -0.8582393527 7.6796164513 -17.51543808 5.5013511968e-08
          -0.97204756737 -4.0961904526 1.5458007283e-06 -0.74808198214 -12.391336441 -0.41451469064
          5.1508402824 -17.329576492 -0.52360606194 0 0 0
          -1.5632078648 -6.0832986832 0.094903737307 12.974629402 -18.047132492 0.31793326139
          -0.36109054089 -2.0659794807 -0.084852680564 2.0069565773 -14.412797928 0.26463630795
          5.1581287384 -17.334831238 -0.26104578376 4.4054288864 -14.523927689 0.52711862326
          10.272390366 -17.752613068 0.29692873359 0.51450186968 -14.61853981 -0.6746160984
          -2.0358021259 -10.357938766 -0.95600640774 -1.8079514503 -5.375333786 0.12505461276
          -1.7538743019 -6.1594161987 -0.007715865504 -2.4733057022 -7.6024041176 0.46627208591
          0.55432760715 -14.575823784 -0.32596209645 -2.0070314407 -10.258086205 -0.49413496256
          -0.70726883411 -12.404568672 1.9553367565e-06 0.020265314728 -11.855065346 0.65385133028
          7.6754617691 -17.509023666 0.27461674809 -1.1913768053 -9.7968845367 0.84010618925
          5.1589078903 -17.337501526 4.7384611435e-07 -0.94120919704 -4.0854105949 -0.10014875233
          -1.7854161263 -6.1783871651 2.3869356482e-06 0.6005422473 -14.599559784 1.4207362256e-06
          -1.997477293 -10.226876259 2.5476228984e-06 -2.7172086239 -8.2925977707 -0.66975265741
          2.7213556767 -17.2462883 -0.54859298468 12.951899529 -18.018009186 0.63623917103
          0 0 0 -0.74808239937 -12.391337395 0.41451859474
          -0.37267297506 -2.0699019432 -0.18078266084 -2.8763065338 -8.3033370972 -0.41646301746
          2.0267825127 -14.42385006 0.54240256548 10.251332283 -17.721973419 0.59735250473
          2.7215681076 -17.223415375 -0.27255308628 13.980546951 -20.802482605 -0.60852950811
          0 0 0 -2.4556558132 -7.7347970009 0.87953007221
          13.995231628 -20.828371048 -0.30384004116 -0.23103007674 -2.2721717358 0.11757709086
          11.212556839 -20.516172409 -0.57315140963 5.1581287384 -17.334833145 0.26104670763
          0 0 0 -1.7538746595 -6.1594166756 0.0077205551788
          11.227088928 -20.543300629 -0.28480169177 -0.21731998026 -2.2469387054 0.05542320013
          0.55432748795 -14.575824738 0.32596492767 -2.0070319176 -10.258087158 0.49414002895
          7.6609106064 -17.483837128 0.5552585125 -2.867058754 -8.2601804733 3.1142683383e-06
          2.7156307697 -17.223684311 9.2846431698e-07 -0.87171173096 -4.0631337166 -0.16599537432
          -0.42959192395 -15.167058945 -0.82415211201 -0.53565919399 -4.4323601723 0.13014632463
          8.5097007751 -20.27976799 -0.53346723318 -1.5853633881 -13.130274773 -0.94514334202
          13.999913216 -20.837112427 -8.5224900204e-07 0 0 0
          -0.37242028117 -15.112484932 -0.39931097627 11.231778145 -20.55141449 -4.4710756697e-07
          -0.22513850033 -2.2523002625 7.0381258865e-07 8.5226402283 -20.301290512 -0.26356545091
          -0.56593221426 -4.4273304939 0.072844706476 -1.5449249744 -13.06479454 -0.4752933681
          -0.80025094748 -12.471793175 0.8582431078 -0.3349635303 -15.125232697 1.9277858883e-06
          -2.6953241825 -10.994205475 -1.075969696 -2.8763077259 -8.3033370972 0.41646930575
          1.0478008986 -17.40845871 -0.66727507114 8.5257396698 -20.305221558 -3.4219990397e-08
          5.1508398056 -17.3295784 0.52360695601 2.7215681076 -17.223415375 0.27255493402
          -1.5299291611 -13.050769806 2.5347824248e-06 -0.58111870289 -4.4389104843 1.5401051314e-06
          -1.5632075071 -6.08329916 -0.09489954263 13.995231628 -20.828372955 0.30383831263
          5.8803219795 -20.120855331 -0.4992543757 -2.6879086494 -10.90312767 -0.54064577818
          -0.93276518583 -6.653907299 0.056850157678 1.0941678286 -17.364099503 -0.32378801703
          0.51450169086 -14.618541718 0.67461889982 -2.0358028412 -10.357940674 0.95601141453
          0 0 0 -1.0271422863 -6.6927676201 0.042104907334
          11.227088928 -20.543300629 0.2848007977 -0.21731992066 -2.2469387054 -0.055421844125
          5.891228199 -20.123836517 -0.24809013307 -2.6792881489 -10.877864838 3.1770939586e-06
          1.1338880062 -17.376144409 1.37615109e-06 -0.3724206984 -15.112485886 0.39931479096
          5.8904266357 -20.123729706 3.9549766484e-07 -1.0689957142 -6.7283821106 2.4074111025e-06
          8.5226392746 -20.301290512 0.2635653615 -0.56593215466 -4.4273304939 -0.072841674089
          -1.5449254513 -13.064795494 0.47529840469 -2.717209816 -8.292599678 0.66975903511
          2.7213556767 -17.246290207 0.54859483242 3.3657391071 -20.039676666 -0.51814466715
          13.980546951 -20.802484512 0.60852777958 0 0 0
          -1.4254541397 -8.9076070786 0.0045921765268 -0.23102931678 -2.2721717358 -0.11757567525
          11.212555885 -20.516174316 0.57315051556 -2.6879093647 -10.903128624 0.54065209627
          1.0941677094 -17.36410141 0.32379075885 3.3742468357 -20.017446518 -0.25804293156
          -1.1997797489 -15.873666763 -0.90776520967 -1.6561751366 -9.1186056137 -0.12971518934
          -1.0271422863 -6.6927680969 -0.042100213468 5.8912277222 -20.123838425 0.24809092283
          -1.1642956734 -15.815797806 -0.44719588757 -0.044778041542 -17.851799011 -0.77553862333
          -2.1530749798 -13.896917343 -1.0742561817 14.98050499 -23.620334625 -0.59566116333
          0 0 0 12.149015427 -23.33600235 -0.55817508698
          -0.42959260941 -15.167060852 0.8241558671 -0.53565829992 -4.4323606491 -0.13014344871
          8.5096998215 -20.279769897 0.53346717358 -2.1363441944 -13.812311172 -0.52577918768
          0.0032006548718 -17.800294876 -0.3767824769 -1.5853643417 -13.130275726 0.9451482892
          14.988191605 -23.646999359 -0.29702496529 0 0 0
          -1.6510614157 -9.1286354065 3.1202157516e-06 3.3689303398 -20.016897202 8.4710086412e-07
          -0.042273834348 -2.3418359756 0.031756799668 12.1570158 -23.363636017 -0.27749586105
          -0.033663630486 -2.3091254234 0.013445260935 -1.1534885168 -15.805534363 2.4211497021e-06
          9.3444757462 -23.091459274 -0.51603668928 -2.1344547272 -13.792403221 3.0498654269e-06
          0.029154188931 -17.80008316 1.8288932324e-06 14.991465569 -23.655620575 -9.8493967471e-07
          0 0 0 -0.077065855265 -4.5673122406 0.040906377137
          9.3539962769 -23.114572525 -0.25476294756 12.159893036 -23.371591568 -5.7657189245e-07
          -2.6953251362 -10.994207382 1.0759760141 1.0478005409 -17.408460617 0.66727775335
          -0.033384229988 -2.3122663498 6.5570071683e-07 -0.071459822357 -4.5436439514 0.021561194211
          5.8803215027 -20.120857239 0.49925512075 -0.93276458979 -6.653907299 -0.056845728308
          -2.7964904308 -11.859674454 -1.2564793825 1.6094230413 -20.195228577 -0.64555168152
          -1.6561754942 -9.1186056137 0.12972140312 3.3742468357 -20.017448425 0.25804460049
          -2.8099491596 -11.756711006 -0.62258791924 1.6525410414 -20.147937775 -0.30995422602
          -1.1642962694 -15.815797806 0.44720071554 9.3571386337 -23.118608475 -1.5822314481e-07
          -0.069939866662 -4.555914402 1.4375198134e-06 6.5869603157 -22.919122696 -0.47471824288
          -2.1363449097 -13.812312126 0.52578526735 0.0032002490479 -17.800294876 0.37678611279
          14.988190651 -23.646999359 0.29702296853 0 0 0
          -0.10763595253 -6.8042945862 0.048609159887 6.5891628265 -22.924119949 -0.237832129
          12.1570158 -23.363637924 0.27749469876 -0.10581573099 -6.8573913574 0.025506045669
          -2.8091042042 -11.723468781 3.6620101582e-06 1.6831495762 -20.151941299 1.2710360124e-06
          -0.033663552254 -2.3091254234 -0.013443993405 9.3539962769 -23.114572525 0.25476261973
          6.5828385353 -22.923145294 2.7115342505e-07 -0.10635750741 -6.8870921135 2.237954277e-06
          3.3657388687 -20.039678574 0.51814627647 -0.87186706066 -18.50438118 -0.86231255531
          -0.071459710598 -4.5436439514 -0.021558359265 -1.4254540205 -8.9076080322 -0.0045865620486
          -1.6946963072 -16.742744446 -1.0386428833 -0.84740030766 -18.435968399 -0.41951611638
          -1.1997808218 -15.873668671 0.90776997805 -1.6777712107 -16.653272629 -0.5025203228
          -2.8099501133 -11.75671196 0.62259531021 1.6525409222 -20.147937775 0.30995675921
          -0.044778760523 -17.851800919 0.77554214001 -2.1530761719 -13.896918297 1.0742621422
          -0.14507876337 -9.2788534164 0.058119621128 3.9673726559 -22.828113556 -0.4862306416
          14.980504036 -23.620336533 0.59565913677 0 0 0
          12.149015427 -23.336004257 0.55817389488 -0.15045417845 -9.4106674194 0.029127988964
          -0.8483774066 -18.413862228 2.2467236249e-06 -2.2209038734 -14.904992104 -1.3117537498
          0.39232975245 -20.538312912 -0.72923183441 3.9680581093 -22.809083939 -0.24526849389
          -0.042273085564 -2.3418357372 -0.031755466014 -1.6890463829 -16.624994278 2.8375845886e-06
          6.5891628265 -22.924119949 0.23783266544 -0.10581575334 -6.8573913574 -0.025501664728
          0.42627125978 -20.481388092 -0.35460790992 -2.1737127304 -14.791902542 -0.62253892422
          9.3444747925 -23.091461182 0.51603633165 -0.15331229568 -9.4870786667 2.9308000649e-06
          3.9572918415 -22.807857513 7.1230579124e-07 -0.077064931393 -4.5673117638 -0.040903657675
          0.43940201402 -20.466569901 1.6815556592e-06 15.972393036 -26.484725952 -0.59332340956
          0 0 0 -2.1910560131 -14.74527359 3.403189794e-06
          15.974456787 -26.513792038 -0.295709759 0 0 0
          -0.8474009037 -18.435970306 0.41952058673 13.07443428 -26.199794769 -0.55243140459
          -2.7964918613 -11.859675407 1.2564867735 1.6094226837 -20.195230484 0.64555412531
          0.14865550399 -2.2627537251 -0.055800486356 -1.6777719259 -16.653274536 0.50252598524
          13.076940536 -26.22927475 -0.27486553788 0.15134817362 -2.2349665165 -0.02896877192
          6.586959362 -22.919124603 0.47471874952 15.976212502 -26.523014069 -1.1515412552e-06
          -0.15045456588 -9.4106674194 -0.029122265056 10.178307533 -25.948625565 -0.50822585821
          0.39027070999 -4.4117283821 -0.050296317786 3.9680578709 -22.809085846 0.2452699095
          0 0 0 2.1929135323 -22.966533661 -0.61990630627
          -0.2005611062 -12.41386795 0.035847045481 -0.10763528198 -6.8042945862 -0.048605088145
          0.42888405919 -4.4007425308 -0.031687691808 10.181853294 -25.974336624 -0.2516272366
          13.078413963 -26.237831116 -7.4133043881e-07 0.42627087235 -20.481388092 0.35461124778
          -0.21976800263 -12.789434433 0.0096595091745 2.2292292118 -22.916057587 -0.29469305277
          -2.1737134457 -14.791902542 0.62254577875 0.15944831073 -2.2392821312 5.8202635955e-07
          -1.3544306755 -19.367771149 -0.9868927002 10.183377266 -25.980268478 -3.1967476843e-07
          -0.87186813354 -18.504383087 0.86231696606 0.44699007273 -4.4107651711 1.2719051483e-06
          -0.21786427498 -12.667352676 3.4660467918e-06 -1.3399230242 -19.273004532 -0.47376126051
          2.2520194054 -22.912445068 1.1256513517e-06 -1.6946977377 -16.742746353 1.0386484861
          15.974456787 -26.513792038 0.29570746422 7.2764925957 -25.755048752 -0.46743866801
          -1.6819576025 -17.815280914 -1.2041379213 0 0 0
          0.72854733467 -6.6150240898 0.026164636016 -0.52524977922 -21.067461014 -0.81007999182
          0.82556062937 -6.6456770897 0.0021007307805 7.2791452408 -25.765977859 -0.23527933657
          13.076940536 -26.22927475 0.27486404777 -1.6141684055 -17.748117447 -0.5665140748
          -0.51236754656 -20.99115181 -0.39375609159 0.15134824812 -2.2349665165 0.028969900683
          -0.14507885277 -9.2788534164 -0.058114316314 3.967372179 -22.828115463 0.48623204231
          -1.3707193136 -19.223489761 2.5777826522e-06 -2.220905304 -14.904994011 1.3117605448
          0.39232900739 -20.538312912 0.72923505306 7.2792243958 -25.768421173 1.0831666941e-07
          10.181853294 -25.974338531 0.25162658095 -1.6538757086 -17.677879333 3.0886424156e-06
          0.4288841486 -4.400742054 0.031690202653 0.86803740263 -6.6790103912 1.9596820948e-06
          -0.21976873279 -12.789435387 -0.0096527002752 2.2292289734 -22.916059494 0.29469528794
          -0.52719777822 -20.954854965 2.0391162252e-06 0.89393401146 -23.213726044 -0.68933182955
          -0.22965651751 -15.9136343 -0.041304517537 0.91328758001 -23.153297424 -0.33579388261
          -0.22919636965 -16.347173691 -0.020618408918 15.972392082 -26.484727859 0.59332102537
          0 0 0 -1.3399238586 -19.273004532 0.47376641631
          1.1948655844 -8.8615884781 0.08313177526 4.5446200371 -25.639623642 -0.47294822335
          1.4197041988 -9.0570573807 0.16973388195 13.07443428 -26.199796677 0.55242991447
          0.14865615964 -2.2627534866 0.055801678449 4.5500745773 -25.627140045 -0.23934951425
          7.2791452408 -25.765977859 0.23527954519 -1.61416924 -17.748119354 0.56652027369
          0.82556056976 -6.6456766129 -0.0020969049074 -0.512368083 -20.99115181 0.39376014471
          0.91331487894 -23.127763748 1.5024934328e-06 -0.22974951565 -16.213310242 3.3701508073e-06
          10.17830658 -25.948627472 0.50822514296 0.39027151465 -4.4117279053 0.050298731774
          2.1929130554 -22.966533661 0.61990845203 1.4152122736 -9.0695533752 2.5307022042e-06
          -0.20056213439 -12.41386795 -0.035840947181 4.5500545502 -25.628545761 5.4373987268e-07
          16.966543198 -29.408460617 -0.59753018618 0 0 0
          -1.354432106 -19.367773056 0.98689776659 0.91328722239 -23.153299332 0.33579686284
          0 0 0 13.997813225 -29.12213707 -0.55359601974
          -1.3001929522 -20.388090134 -1.0389714241 -0.22919717431 -16.347173691 0.020625011995
          0.29726746678 -2.0505378246 -0.12184072286 -1.0485284328 -21.800271988 -0.91012305021
          16.964883804 -29.440254211 -0.2980029881 7.276491642 -25.755050659 0.46743884683
          13.996512413 -29.153741837 -0.27573987842 0.29903686047 -2.0413250923 -0.060086213052
          -1.6819591522 -17.815282822 1.2041441202 -1.2346760035 -20.382888794 -0.48759680986
          0.72854781151 -6.6150231361 -0.026161052287 2.8136994839 -25.727468491 -0.59526371956
          1.4197038412 -9.057056427 -0.16972896457 -0.52525091171 -21.067462921 0.81008398533
          2.560290575 -11.754805565 1.3348654509 4.5500741005 -25.627141953 0.23935058713
          -1.0402517319 -21.717500687 -0.43746948242 2.5755889416 -11.639274597 0.66320151091
          2.8404290676 -25.67889595 -0.28225162625 11.012971878 -28.867473602 -0.50854223967
          16.965536118 -29.450407028 -1.3608928384e-06 0.73876178265 -4.0139799118 -0.098750464618
          0 0 0 11.013427734 -28.894851685 -0.25269293785
          0.81284177303 -4.0268921852 -0.064562134445 13.99677372 -29.163290024 -9.4753738722e-07
          -0.11062651128 -23.599309921 -0.75730210543 -1.298573494 -20.285297394 2.7601579404e-06
          -1.0904204845 -21.650398254 2.3029108434e-06 -0.22369280457 -18.677383423 -0.059383343905
          0.31476169825 -2.0492806435 4.9970310556e-07 -0.10790704936 -23.527748108 -0.37025368214
          2.8536937237 -25.670337677 9.5750010587e-07 -0.21696324646 -19.087768555 -0.0276034493
          2.5774898529 -11.600274086 2.7127491649e-06 0.8939332366 -23.213727951 0.68933469057
          11.014335632 -28.90228653 -5.1994356909e-07 -0.22965802252 -15.9136343 0.04131058231
          0.8461393714 -4.0348596573 1.0755848052e-06 8.0042867661 -28.653829575 -0.47150295973
          16.964883804 -29.440254211 0.29800027609 -0.13614338636 -23.483512878 1.8133958974e-06
          1.3937784433 -6.0095815659 -0.021951533854 1.194865346 -8.8615875244 -0.083127334714
          -0.21815596521 -18.959842682 3.0670239539e-06 4.5446190834 -25.639625549 0.47294926643
          0 0 0 8.0068569183 -28.669355392 -0.23509088159
          1.5799003839 -6.0665183067 0.035558391362 13.996511459 -29.153741837 0.27573797107
          -1.2346767187 -20.382890701 0.4876023531 -1.0402524471 -21.717502594 0.43747410178
          0.29903689027 -2.0413248539 0.060087181628 2.8404288292 -25.678897858 0.2822535038
          2.5755882263 -11.639274597 -0.66319620609 11.013427734 -28.894851685 0.25269189477
          8.0093765259 -28.67391777 -8.4324419447e-08 1.4637490511 -25.873157501 -0.65328979492
          1.9664692879 -14.880403519 1.3927236795 1.61657691 -6.0834379196 1.6178588567e-06
          0.81284183264 -4.0268917084 0.06456425786 1.9094758034 -14.760624886 0.66104704142
          -0.1079075858 -23.527748108 0.37025728822 1.4722566605 -25.817529678 -0.31975236535
          -0.21696406603 -19.087768555 0.027609478682 5.1778402328 -28.503219604 -0.47191029787
          16.96654129 -29.408460617 0.59752744436 0 0 0
          2.4833955765 -8.1293916702 0.66805905104 5.1846394539 -28.495834351 -0.23454749584