<?xml version="1.0"?>
<VTKFile type="UnstructuredGrid" version="0.1" byte_order="LittleEndian" header_type="UInt32" compressor="vtkZLibDataCompressor">
  <UnstructuredGrid>
    <Piece NumberOfPoints="6405" NumberOfCells="4800">
      <PointData>
        <DataArray type="Float32" Name="DISPLACEMENT" NumberOfComponents="3" ComponentName0="X-DISPLACEMENT" ComponentName1="Y-DISPLACEMENT" ComponentName2="Z-DISPLACEMENT" format="ascii" RangeMin="0" RangeMax="327.55472547">
          0 0 0 0 0 0
          2.5899655819 -1.5218098164 -1.1886088848 0 0 0
          1.5288625956 -0.86171388626 -0.82325094938 0 0 0
          2.3805947304 -1.735599637 -0.46823352575 1.3291170597 -1.0478178263 -0.33538269997
          0 0 0 4.6869440079 -3.1038029194 -1.2058594227
          0 0 0 4.6275067329 -3.3462908268 -0.61539798975
          3.0764818192 -2.5975589752 -0.91614770889 0 0 0
          0 0 0 2.3939285278 -1.7983323336 -1.0031998698e-07
          0.86466157436 -0.55240398645 -0.49383825064 1.3204247952 -1.081009388 -2.5209748955e-08
          3.0086512566 -2.7979359627 -0.46583834291 0.74823921919 -0.7365925312 -0.19963437319
          4.5766282082 -3.4122035503 -1.7029246635e-07 1.794888854 -2.2191984653 -0.6081212163
          0 0 0 2.9686429501 -2.8572018147 -3.6958176963e-08
          1.7063784599 -2.4047429562 -0.30921155214 0 0 0
          6.5288701057 -5.2730140686 -1.103749752 0 0 0
          0.76153159142 -0.76500630379 4.5399080051e-08 0 0 0
          0 0 0 2.3805949688 -1.7355997562 0.46823331714
          4.5069189072 -4.8153481483 -0.88488960266 6.5512809753 -5.4424300194 -0.56053477526
          0.034955069423 -0.42166724801 -0.11848241836 1.3291171789 -1.0478179455 0.33538267016
          4.5184864998 -4.9730477333 -0.44926938415 -0.067437686026 -0.63486480713 -0.075472861528
          1.6767239571 -2.4544289112 9.4214506419e-08 4.6275072098 -3.3462913036 0.61539763212
          0 0 0 0 0 0
          0.28598567843 -2.0255146027 -0.32755050063 2.791069746 -4.5001544952 -0.6778268218
          6.5315608978 -5.5006289482 -2.3040061592e-07 3.0086512566 -2.7979362011 0.4658382833
          2.7515528202 -4.6372580528 -0.34463134408 0.74823921919 -0.73659271002 0.19963446259
          4.5071558952 -5.0230646133 -4.1175567844e-08 0.18649719656 -2.2029576302 -0.17391593754
          -0.06891912967 -0.6740911603 1.2758286516e-07 0 0 0
          8.1570587158 -7.7417588234 -0.95861631632 0 0 0
          5.8464255333 -7.3384490013 -0.81973665953 1.7063784599 -2.404743433 0.30921173096
          8.2060909271 -7.8522953987 -0.48613861203 2.5899655819 -1.521810174 1.1886086464
          0 0 0 0 0 0
          0.17165857553 -2.25588727 2.2859680371e-07 2.7370538712 -4.6812334061 1.4693567607e-07
          -0.58071154356 -0.6848269105 -0.052925731987 5.8858923912 -7.4449415207 -0.41290730238
          1.5288625956 -0.86171418428 0.82325088978 0.90996414423 -4.2863535881 -0.5238943696
          0 0 0 6.5512809753 -5.4424304962 0.56053429842
          -0.7471781373 -0.79397261143 -0.024562140927 0.84548062086 -4.3975658417 -0.25845220685
          4.5184864998 -4.9730482101 0.44926929474 -0.067437753081 -0.63486492634 0.075473099947
          3.8085787296 -7.0497741699 -0.69125396013 -0.57868111134 -2.2597870827 -0.37508958578
          8.2040529251 -7.8910832405 -2.8006266461e-07 4.6869440079 -3.1038033962 1.2058590651
          0 0 0 0 0 0
          3.810713768 -7.14189291 -0.34939092398 3.0764820576 -2.5975594521 0.91614764929
          5.8911142349 -7.4818043709 -4.4150738177e-08 -0.66013914347 -2.322463274 -0.14696806669
          0.86466169357 -0.55240428448 0.49383834004 -0.77447575331 -0.86489355564 2.8609088076e-07
          0.83146089315 -4.43673563 3.4780896385e-07 2.7515528202 -4.6372585297 0.3446316421
          0.18649716675 -2.2029578686 0.17391641438 3.8092324734 -7.1757349968 1.960299727e-07
          1.7948889732 -2.2191989422 0.60812145472 -0.65885305405 -2.391138792 4.5594222797e-07
          1.8121211529 -6.8310155869 -0.60884654522 8.2060909271 -7.8522958755 0.48613804579
          6.5288705826 -5.2730150223 1.1037492752 0 0 0
          9.5952224731 -10.368740082 -0.84082126617 0 0 0
          0 0 0 -0.24122920632 -4.3599081039 -0.47127136588
          1.7882356644 -6.9046640396 -0.29451557994 9.6450538635 -10.439743042 -0.42381295562
          7.0973601341 -9.9965057373 -0.75053733587 5.8858923912 -7.4449419975 0.41290721297
          -1.3529732227 -1.0031610727 -0.073042310774 0 0 0
          4.5069189072 -4.815349102 0.88488948345 0.034955080599 -0.42166748643 0.11848264933
          -0.26160264015 -4.4267721176 -0.21915882826 -0.74717825651 -0.79397273064 0.024562684819
          -1.5042254925 -1.020991087 -0.057902302593 0.84548068047 -4.3975658417 0.25845292211
          7.1417884827 -10.068930626 -0.37622520328 3.810713768 -7.1418933868 0.34939131141
          1.7704514265 -6.930724144 4.6038903179e-07 9.6518774033 -10.465566635 -3.2670945416e-07
          -1.4176228046 -2.6287748814 -0.46958047152 -0.66013920307 -2.3224635124 0.14696899056
          0 0 0 4.8346095085 -9.7014093399 -0.66365140676
          0.28598573804 -2.0255150795 0.32755100727 2.791069746 -4.5001554489 0.67782711983
          -0.27205169201 -4.4621043205 6.3898244207e-07 7.1524624825 -10.094730377 -5.4540620908e-08
          -1.4360617399 -1.0957739353 5.6442490859e-07 -1.469678998 -2.6029689312 -0.20674189925
          4.858757019 -9.7703380585 -0.33264818788 8.1570587158 -7.7417597771 0.95861572027
          0 0 0 0.21306812763 -6.7386417389 -0.46091511846
          5.8464255333 -7.338449955 0.81973654032 -1.4547441006 -2.6376533508 7.9064005831e-07
          0.21367353201 -6.8198390007 -0.24063965678 4.8640861511 -9.7954502106 2.2603018124e-07
          -0.58071142435 -0.68482732773 0.052926298231 1.7882357836 -6.9046649933 0.29451650381
          2.7508945465 -9.4734630585 -0.58190703392 9.6450538635 -10.439743996 0.42381229997
          -1.1233371496 -4.7633414268 -0.55803138018 0.90996432304 -4.2863540649 0.52389508486
          0 0 0 -0.26160266995 -4.4267725945 0.21916010976
          2.7507786751 -9.5369224548 -0.28943279386 -1.5042258501 -1.020991087 0.057903386652
          -1.1537163258 -4.7493739128 -0.2471781522 7.1417884827 -10.068930626 0.37622508407
          3.808578968 -7.0497756004 0.69125437737 -0.57868093252 -2.2597877979 0.37509056926
          10.893211365 -13.081098557 -0.75524026155 0 0 0
          0.20926965773 -6.8399581909 7.8905418377e-07 8.2696256638 -12.731370926 -0.68936294317
          10.935034752 -13.131225586 -0.37873825431 0 0 0
          -0.87216544151 -1.486856699 0.38466486335 8.3085231781 -12.784682274 -0.34428396821
          2.7369987965 -9.5543241501 5.3730843774e-07 -0.9604203105 -1.5793665648 0.074518531561
          -1.4696792364 -2.6029691696 0.20674347878 -1.1249613762 -4.7821464539 1.0094768186e-06
          4.858757019 -9.7703390121 0.33264863491 5.8446726799 -12.435285568 -0.61933577061
          -2.2067930698 -3.0182464123 -0.5511366725 10.944153786 -13.149150848 -3.777422819e-07
          0 0 0 -2.2941570282 -2.9592056274 -0.27276164293
          5.870446682 -12.489580154 -0.30830526352 8.3194990158 -12.803155899 -8.0366746147e-08
          -0.9496730566 -1.5788012743 6.558241239e-07 1.8121213913 -6.8310165405 0.60884749889
          0.7167506218 -9.3431510925 -0.45910033584 9.5952224731 -10.368741035 0.84082061052
          0 0 0 -0.78097712994 -7.1727566719 -0.62138217688
          0.2136734724 -6.8198394775 0.2406412214 -0.24122910202 -4.3599090576 0.47127264738
          7.0973601341 -9.996506691 0.75053721666 -1.3529731035 -1.0031615496 0.073043443263
          -0.80000835657 -7.1427226067 -0.27061757445 0.72062700987 -9.4045953751 -0.24506607652
          2.7507786751 -9.5369234085 0.28943383694 -1.1537165642 -4.7493743896 0.24718014896
          5.8763027191 -12.506983757 2.2410686995e-07 -2.2789931297 -2.9575555325 1.2599040247e-06
          3.5816309452 -12.222109795 -0.53852587938 -1.9077205658 -5.2737679482 -0.72953188419
          -1.4176226854 -2.628775835 0.46958208084 10.935034752 -13.13122654 0.37873747945
          4.8346095085 -9.7014102936 0.6636518836 0 0 0
          0.72726726532 -9.4189386368 8.7182013431e-07 -0.75764423609 -7.186466217 1.1550415593e-06
          3.5948169231 -12.270104408 -0.27246516943 8.3085231781 -12.784682274 0.3442837894
          -1.9602628946 -5.1787109375 -0.3510170579 -0.96042054892 -1.5793668032 -0.07451723516
          0.21306812763 -6.7386431694 0.46091663837 3.5982503891 -12.284638405 5.5031006241e-07
          5.870446682 -12.489580154 0.30830571055 -2.2941572666 -2.9592058659 0.27276414633
          -1.9478479624 -5.1762919426 1.471323344e-06 12.089109421 -15.862089157 -0.69469898939
          0 0 0 12.121153831 -15.901104927 -0.34711635113
          2.7508947849 -9.4734640121 0.5819080472 9.3690109253 -15.534376144 -0.64176136255
          -1.1233372688 -4.7633423805 0.55803334713 -0.4147875011 -9.7830181122 -0.67832404375
          -0.72878056765 -1.9832258224 0.31230986118 -0.80000859499 -7.1427235603 0.27061986923
          0.72062689066 -9.4045953751 0.24506781995 0 0 0
          9.3987627029 -15.576156616 -0.31936809421 -0.40932959318 -9.7309274673 -0.30126470327
          -0.77536737919 -2.0043056011 0.13662558794 1.2568913698 -12.106588364 -0.4799477756
          -1.5153260231 -7.8106031418 -0.85583984852 10.893211365 -13.081100464 0.75523948669
          0 0 0 8.2696256638 -12.73137188 0.68936276436
          12.12939167 -15.914577484 -4.3703360575e-07 -1.519718051 -7.6960105896 -0.4122980535
          1.2687400579 -12.140711784 -0.24590860307 -0.8721652627 -1.4868570566 -0.38466367126
          6.8051595688 -15.259268761 -0.58216029406 -1.591951251 -3.6450097561 0.071016669273
          0 0 0 3.5948169231 -12.270105362 0.27246627212
          -1.960263133 -5.1787114143 0.35102000833 9.4077243805 -15.589625359 -1.236073075e-07
          -0.36067029834 -9.7747926712 1.2291534404e-06 6.8252921104 -15.299117088 -0.28790861368
          -1.8273224831 -3.7590019703 -0.060957551003 -0.81197494268 -2.0321309566 7.8364882938e-07
          5.8446726799 -12.435286522 0.61933618784 -2.2067933083 -3.0182476044 0.5511392355
          1.2891125679 -12.15845108 8.8553730393e-07 -1.4950315952 -7.6953444481 1.6119340671e-06
          0.71675050259 -9.3431529999 0.45910206437 6.8307471275 -15.309340477 1.9249701211e-07
          -1.7928520441 -3.7306587696 1.5092285821e-06 -0.78097730875 -7.1727581024 0.62138450146
          12.121153831 -15.901104927 0.34711545706 4.3452992439 -15.07416153 -0.51843953133
          0 0 0 -2.6672856808 -5.7958984375 -0.8948469162
          4.3557786942 -15.09823513 -0.25908827782 9.3987627029 -15.57615757 0.31936782598
          -0.775367558 -2.0043058395 -0.13662412763 -0.4093298316 -9.730928421 0.30126714706
          -2.7205955982 -5.6731820107 -0.46487918496 3.5816309452 -12.222111702 0.53852695227
          -0.015930857509 -12.501642227 -0.71463632584 1.2687399387 -12.140712738 0.24591037631
          -1.907720685 -5.2737693787 0.72953486443 -1.5197184086 -7.6960115433 0.41230127215
          -1.1209973097 -10.503428459 -0.92043340206 0.012359499 -12.443597794 -0.32622411847
          4.3622803688 -15.105291367 5.1904027032e-07 6.8252921104 -15.299118042 0.28790900111
          -1.8273229599 -3.7590022087 0.060960628092 -1.0848288536 -10.399367332 -0.44657534361
          -2.7192466259 -5.6431188583 2.0490888346e-06 13.207116127 -18.705188751 -0.65175461769
          0 0 0 -0.55045890808 -2.3377742767 0.28790658712
          0.062172554433 -12.486626625 1.2520380324e-06 1.8681660891 -14.976428986 -0.51319038868
          10.403725624 -18.397012711 -0.60735332966 12.089109421 -15.862090111 0.69469809532
          0 0 0 0 0 0
          -1.0469659567 -10.406931877 1.6889176777e-06 -2.2322096825 -8.436416626 -1.0265488625
          13.230010033 -18.737327576 -0.32508504391 1.8711689711 -14.975301743 -0.25262159109
          10.425004005 -18.430770874 -0.30163693428 9.3690109253 -15.534377098 0.64176106453
          -0.57372915745 -2.338748455 0.13351844251 -0.41478770971 -9.7830200195 0.67832648754
          -0.72878015041 -1.9832262993 -0.31230849028 -2.2295379639 -8.3124284744 -0.52625179291
          4.3557782173 -15.098236084 0.2590893209 -2.7205960751 -5.6731824875 0.46488326788
          7.7107739449 -18.142856598 -0.55725687742 1.2568912506 -12.106590271 0.47994959354
          -1.5153263807 -7.8106040955 0.85584306717 0 0 0
          -1.3077316284 -4.4133973122 0.19260685146 13.236206055 -18.748031616 -5.0616108638e-07
          -0.60810613632 -2.3520724773 8.1153910969e-07 1.8809171915 -14.984323502 8.6968083224e-07
          7.7248272896 -18.17130661 -0.2747130096 6.8051595688 -15.259270668 0.58216065168
          10.431715012 -18.440877914 -1.8345333785e-07 -1.591951251 -3.6450104713 -0.071013763547
          -2.2191953659 -8.2808961868 2.1721639314e-06 -1.4991794825 -4.4646253586 0.067116603255
          0.012359310873 -12.443598747 0.32622662187 -1.0848292112 -10.399367332 0.44657871127
          -0.7634626627 -13.22751236 -0.92929422855 7.7289485931 -18.17681694 1.4191968489e-07
          -1.5334806442 -4.4911842346 1.701493261e-06 -0.70793431997 -13.144936562 -0.4515645802
          5.0962309837 -17.975982666 -0.51144385338 0 0 0
          -2.4599575996 -6.4641580582 -0.51459896564 13.230010033 -18.737327576 0.32508403063
          -0.57372927666 -2.3387486935 -0.13351690769 1.8711689711 -14.975302696 0.25262334943
          5.1000561714 -17.984283447 -0.25324100256 4.3452992439 -15.074162483 0.51844060421
          10.425004005 -18.430770874 0.30163657665 0.43886446953 -15.296862602 -0.72783505917
          -1.7602620125 -11.249127388 -1.0652629137 -2.6672861576 -5.795899868 0.89485096931
          -2.7031385899 -6.5233826637 -0.36603716016 -2.2295382023 -8.3124294281 0.52625614405
          0.48115748167 -15.234947205 -0.34104418755 -1.7257691622 -11.15180397 -0.53856825829
          -0.66516059637 -13.157767296 1.7002986397e-06 -0.015931094065 -12.501644135 0.71463882923
          7.7248272896 -18.171308517 0.27471330762 -1.1209977865 -10.503429413 0.92043673992
          5.1006770134 -17.986240387 4.7730355845e-07 -1.4991797209 -4.4646253586 -0.067113265395
          -2.6902906895 -6.4793081284 2.5268827812e-06 0.52880549431 -15.265017509 1.2487917047e-06
          -1.7072178125 -11.131124496 2.2066208203e-06 -2.7829654217 -9.1293201447 -1.1786404848
          2.5317196846 -17.887998581 -0.531883955 13.207116127 -18.705190659 0.65175360441
          0 0 0 -0.7079346776 -13.144937515 0.45156797767
          -0.55045831203 -2.3377745152 -0.28790509701 -2.7817337513 -9.0149822235 -0.60098159313
          1.8681659698 -14.976429939 0.51319223642 10.403725624 -18.397012711 0.60735297203
          2.5281329155 -17.867795944 -0.26079440117 14.267223358 -21.601419449 -0.62245136499
          0 0 0 -2.2322101593 -8.4364185333 1.026553154
          14.282376289 -21.628988266 -0.31026813388 -0.32961049676 -2.611168623 0.17823961377
          11.390537262 -21.305856705 -0.58371049166 5.1000556946 -17.984283447 0.25324195623
          0 0 0 -2.7031393051 -6.5233831406 0.36604228616
          11.404520988 -21.334299088 -0.28995463252 -0.331569314 -2.5822060108 0.083039589226
          0.48115733266 -15.234948158 0.34104669094 -1.725769639 -11.15180397 0.53857266903
          7.710773468 -18.142858505 0.55725717545 -2.7722091675 -8.9827842712 2.7443745694e-06
          2.5254507065 -17.871244431 8.4255071897e-07 -1.3077311516 -4.413397789 -0.19260384142
          -0.41435456276 -15.939683914 -0.90481311083 -0.74284160137 -4.9622612 0.11887682229
          8.582657814 -21.057191849 -0.54065811634 -1.3479636908 -14.063613892 -1.0505633354
          14.286646843 -21.637878418 -5.8894386257e-07 0 0 0
          -0.35809475183 -15.868420601 -0.43981570005 11.409032822 -21.342391968 -2.6233502126e-07
          -0.35065618157 -2.5984449387 8.083851526e-07 8.5925960541 -21.079769135 -0.26661747694
          -0.84099632502 -4.9767575264 0.075835838914 -1.30250597 -13.989059448 -0.52419513464
          -0.76346319914 -13.227514267 0.92929750681 -0.32088688016 -15.874708176 1.660511316e-06
          -2.2226133347 -12.078402519 -1.2044274807 -2.7817342281 -9.0149822235 0.60098707676
          0.95436000824 -18.145431519 -0.72386962175 8.5961294174 -21.0835495 7.031970739e-08
          5.0962309837 -17.975984573 0.51144486666 2.5281329155 -17.867797852 0.2607960999
          -1.2822111845 -13.976893425 2.1649932478e-06 -0.88009488583 -5.0079169273 1.7227470153e-06
          -2.4599583149 -6.4641590118 0.51460403204 14.282375336 -21.628990173 0.31026694179
          5.8312149048 -20.888114929 -0.50288075209 -2.19424963 -11.982366562 -0.60145372152
          -1.3159855604 -7.1803030968 0.029865048826 0.99951821566 -18.081762314 -0.34375455976
          0.43886420131 -15.29686451 0.72783756256 -1.7602627277 -11.249128342 1.0652673244
          0 0 0 -1.5597109795 -7.3685531616 -0.10830925405
          11.404520035 -21.334299088 0.28995409608 -0.331569314 -2.5822062492 -0.083038046956
          5.8271656036 -20.88907814 -0.25178751349 -2.185762167 -11.956938744 2.7053904432e-06
          1.0407119989 -18.097906113 1.2102561868e-06 -0.35809513927 -15.868421555 0.43981900811
          5.8198647499 -20.887922287 4.1783926008e-07 -1.5557434559 -7.3906698227 2.5680860745e-06
          8.5925960541 -21.079769135 0.26661759615 -0.84099644423 -4.9767575264 -0.075832463801
          -1.3025064468 -13.989059448 0.52419942617 -2.7829661369 -9.1293210983 1.1786459684
          2.5317194462 -17.888000488 0.53188568354 3.1803495884 -20.797330856 -0.52871572971
          14.267223358 -21.601421356 0.6224501729 0 0 0
          -2.7278974056 -10.038661003 -1.2847768068 -0.32960981131 -2.611168623 -0.17823806405
          11.390536308 -21.305858612 0.58370989561 -2.1942501068 -11.982367516 0.60145914555
          0.99951809645 -18.081764221 0.34375697374 3.1726334095 -20.77075386 -0.2658007741
          -1.0102392435 -16.762929916 -1.0112913847 -2.7563874722 -9.9677429199 -0.66144031286
          -1.5597113371 -7.3685531616 0.1083143577 5.8271656036 -20.88907814 0.25178831816
          -0.96593636274 -16.695085526 -0.49860867858 -0.0129435407 -18.668050766 -0.86518138647
          -1.7313500643 -15.006817818 -1.1670286655 15.289352417 -24.543985367 -0.60464471579
          0 0 0 12.347577095 -24.254894257 -0.56946742535
          -0.41435518861 -15.939684868 0.90481632948 -0.74284094572 -4.9622612 -0.11887362599
          8.5826568604 -21.057191849 0.54065823555 -1.69359231 -14.927210808 -0.57675820589
          0.035625915974 -18.599807739 -0.4212577641 -1.3479645252 -14.063615799 1.0505675077
          15.298048019 -24.568855286 -0.3013882935 0 0 0
          -2.7496478558 -9.9316072464 3.2432233183e-06 3.1619801521 -20.770370483 7.8709757645e-07
          -0.033853799105 -2.7112703323 0.026952866465 12.355648041 -24.280147552 -0.28310021758
          -0.027260778472 -2.6674909592 0.01177774556 -0.95234578848 -16.678596497 2.0635327473e-06
          9.4427165985 -24.004701614 -0.53110331297 -1.6921445131 -14.902074814 2.5900587843e-06
          0.062249008566 -18.593021393 1.5793162902e-06 15.300694466 -24.576726913 -6.9314626217e-07
          0 0 0 -0.056371465325 -5.1187958717 0.03450024873
          9.4478330612 -24.024585724 -0.26278033853 12.358524323 -24.287191391 -3.6727928432e-07
          -2.2226142883 -12.078404427 1.2044328451 0.95435971022 -18.145433426 0.72387200594
          -0.02751920186 -2.6836907864 7.7518308217e-07 -0.054562397301 -5.1395311356 0.017918240279
          5.8312144279 -20.888116837 0.50288152695 -1.315985322 -7.1803035736 -0.029860433191
          -2.2366960049 -13.131420135 -1.4039205313 1.5270419121 -21.010591507 -0.71208548546
          -2.7563884258 -9.9677429199 0.66144680977 3.1726334095 -20.77075386 0.26580235362
          -2.1712901592 -13.041460037 -0.68005508184 1.5703855753 -20.945978165 -0.33877083659
          -0.96593689919 -16.695085526 0.4986127913 9.449593544 -24.028465271 -3.0968873688e-08
          -0.054248016328 -5.16766119 1.6457403262e-06 6.5515875816 -23.819381714 -0.50017851591
          -1.693592906 -14.927211761 0.57676339149 0.035625547171 -18.599809647 0.42126089334
          15.298048019 -24.568855286 0.3013868928 0 0 0
          -0.080802805722 -7.5915236473 0.03630425781 6.5519423485 -23.820882797 -0.25228482485
          12.355648041 -24.280147552 0.28309947252 -0.084407635033 -7.7059750557 0.018938338384
          -2.1786179543 -12.99859333 3.1133247376e-06 1.6045973301 -20.950614929 1.1302377061e-06
          -0.027260778472 -2.6674909592 -0.011776261963 9.4478321075 -24.024587631 0.26278027892
          6.550971508 -23.821395874 3.2068172118e-07 -0.086360275745 -7.7771496773 2.496897423e-06
          3.18034935 -20.797332764 0.52871727943 -0.67469924688 -19.378698349 -0.95346975327
          -0.054562449455 -5.1395311356 -0.017915003002 -2.7278988361 -10.038661957 1.2847833633
          -1.3630088568 -17.72744751 -1.102997303 -0.63794362545 -19.312141418 -0.46814399958
          -1.0102401972 -16.762929916 1.0112954378 -1.3236458302 -17.658851624 -0.54090774059
          -2.1712908745 -13.041460037 0.68006134033 1.5703854561 -20.945980072 0.33877307177
          -0.012944190763 -18.668052673 0.86518448591 -1.7313511372 -15.006818771 1.1670337915
          -0.10598035902 -10.460960388 0.026789344847 3.8088023663 -23.710788727 -0.52643233538
          15.289351463 -24.543985367 0.60464328527 0 0 0
          12.347576141 -24.254894257 0.56946665049 -0.11967016757 -10.865663528 0.0063082138076
          -0.63607335091 -19.284141541 1.9233427793e-06 -1.6891899109 -16.117834091 -1.2819398642
          0.4667096138 -21.410488129 -0.8209143877 3.8137710094 -23.686901093 -0.26648709178
          -0.0338530913 -2.7112700939 -0.026951361448 -1.3360840082 -17.62172699 2.4162436603e-06
          6.5519418716 -23.820882797 0.2522854507 -0.08440798521 -7.7059750557 -0.018933461979
          0.50446867943 -21.346639633 -0.40101340413 -1.6049256325 -16.084611893 -0.61557644606
          9.4427165985 -24.004703522 0.53110319376 -0.1196924448 -10.791703224 3.2063881008e-06
          3.8168237209 -23.688259125 6.8244634122e-07 -0.056370720267 -5.1187958717 -0.034497223794
          0.51869046688 -21.329061508 1.4603623413e-06 16.29042244 -27.530595779 -0.59642076492
          0 0 0 -1.6298646927 -16.028678894 2.9102413919e-06
          16.294139862 -27.554468155 -0.29741162062 0 0 0
          -0.63794416189 -19.312141418 0.46814781427 13.289067268 -27.244293213 -0.56288135052
          -2.236697197 -13.131421089 1.4039267302 1.5270415545 -21.010593414 0.71208769083
          0.26277181506 -2.5980215073 -0.12363733351 -1.3236464262 -17.658851624 0.54091256857
          13.292461395 -27.268108368 -0.28005543351 0.2763274312 -2.5665159225 -0.059660855681
          6.5515871048 -23.819383621 0.50017911196 16.295650482 -27.56199646 -8.2913663846e-07
          -0.11967093498 -10.865663528 -0.0063018975779 10.298548698 -26.991672516 -0.52750450373
          0.62695527077 -4.9327864647 -0.057894330472 3.8137710094 -23.686903 0.26648846269
          0 0 0 2.1564757824 -23.868829727 -0.69305676222
          -0.12360366434 -14.166500092 -0.027212437242 -0.080802679062 -7.5915236473 -0.036299742758
          0.72803902626 -4.9434223175 -0.043005984277 10.301052094 -27.009824753 -0.26179808378
          13.2939291 -27.274845123 -5.0601818202e-07 0.5044683218 -21.346639633 0.40101629496
          -0.12412576377 -14.627343178 -0.01558989007 2.1930847168 -23.808839798 -0.3298612237
          -1.6049263477 -16.0846138 0.61558228731 0.2948847115 -2.581756115 7.2681012853e-07
          -1.0536181927 -20.236890793 -1.0127313137 10.302321434 -27.013717651 -1.6987517881e-07
          -0.67470020056 -19.378700256 0.95347350836 0.7683699131 -4.9728236198 1.5144217969e-06
          -0.12496194988 -14.518610954 3.2912164443e-06 -1.0191407204 -20.185506821 -0.49542671442
          2.2167847157 -23.80616951 1.0093547189e-06 -1.3630101681 -17.727449417 1.1030020714
          16.294139862 -27.554468155 0.29740995169 7.3004903793 -26.788454056 -0.50258511305
          -1.2921316624 -18.792604446 -1.1034673452 0 0 0
          1.1807925701 -7.1496739388 0.030887819827 -0.27927550673 -21.96714592 -0.8850774169
          1.4171807766 -7.3276500702 0.135317415 7.3025927544 -26.790975571 -0.25159326196
          13.292461395 -27.268108368 0.28005442023 -1.2121001482 -18.822818756 -0.52892702818
          -0.25081846118 -21.911027908 -0.43546971679 0.2763274312 -2.5665156841 0.059662230313
          -0.10598120838 -10.460961342 -0.026783721521 3.8088018894 -23.710788727 0.52643364668
          -1.0479315519 -20.134168625 2.2103963602e-06 -1.6891912222 -16.117835999 1.2819455862
          0.46670892835 -21.410488129 0.82091724873 7.3043756485 -26.791809082 1.7703213473e-07
          10.30105114 -27.00982666 0.26179772615 -1.2560023069 -18.75028038 2.6689513106e-06
          0.72803896666 -4.9434223175 0.043008938432 1.4143600464 -7.3517775536 2.2375506887e-06
          -0.12412671 -14.627343178 0.01559639629 2.1930844784 -23.808839798 0.32986322045
          -0.26138561964 -21.87588501 1.7541464103e-06 1.0248217583 -24.147510529 -0.77401679754
          -0.11326977611 -17.009746552 -0.040215376765 1.0523630381 -24.093236923 -0.37966534495
          -0.11040558666 -17.448974609 -0.020612554625 16.290420532 -27.530597687 0.59641903639
          0 0 0 -1.0191414356 -20.185506821 0.49543112516
          2.5778574944 -9.9550418854 1.3166928291 4.4842424393 -26.654590607 -0.52782249451
          2.608540535 -9.8843955994 0.67984557152 13.289066315 -27.244293213 0.56288027763
          0.26277247071 -2.5980212688 0.12363871932 4.4929904938 -26.633211136 -0.26307925582
          7.3025922775 -26.790975571 0.25159358978 -1.2121008635 -18.822818756 0.5289323926
          1.417180419 -7.3276500702 -0.13531303406 -0.25081899762 -21.911027908 0.43547320366
          1.0544863939 -24.069896698 1.3086167883e-06 -0.11147319525 -17.350938797 3.0447347399e-06
          10.298547745 -26.991672516 0.52750408649 0.62695586681 -4.9327859879 0.057897109538
          2.1564753056 -23.868831635 0.69305872917 2.6038188934 -9.8457946777 2.6817822345e-06
          -0.12360534817 -14.166500092 0.027218556032 4.4997444153 -26.634464264 5.3013110346e-07
          17.283737183 -30.561731339 -0.5957224369 0 0 0
          -1.0536193848 -20.2368927 1.0127356052 1.0523626804 -24.093238831 0.37966793776
          0 0 0 14.224369049 -30.275524139 -0.56162923574
          -0.99965924025 -21.134536743 -0.90631693602 -0.11040649563 -17.448974609 0.020618587732
          0.48270907998 -2.3117308617 -0.23713645339 -0.71872931719 -22.636419296 -0.89789634943
          17.28392601 -30.586332321 -0.29724019766 7.3004899025 -26.788454056 0.50258541107
          14.224756241 -30.299623489 -0.27977091074 0.51554226875 -2.3078136444 -0.1113543734
          -1.2921330929 -18.792604446 1.1034725904 -0.94182801247 -21.221353531 -0.43616986275
          1.1807926893 -7.1496734619 -0.030883852392 2.8442537785 -26.729589462 -0.66625374556
          2.6085398197 -9.8843955994 -0.6798402667 -0.27927649021 -21.967147827 0.88508081436
          2.0954227448 -13.096390724 1.4399647713 4.4929904938 -26.633213043 0.2630802989
          -0.6916744709 -22.619117737 -0.44265702367 2.0241472721 -13.008704185 0.6975787282
          2.8765032291 -26.67999649 -0.31905207038 11.15881443 -30.018053055 -0.5271897316
          17.284738541 -30.594150543 -1.0055288158e-06 1.1905819178 -4.3670377731 -0.13017119467
          0 0 0 11.160412788 -30.036859512 -0.26223227382
          1.3794025183 -4.4068894386 -0.041557755321 14.225366592 -30.306657791 -6.8476441584e-07
          0.19592545927 -24.536804199 -0.80784344673 -1.0021820068 -21.142990112 2.4098460472e-06
          -0.73389327526 -22.566345215 1.9884321318e-06 -0.1061148271 -19.510753632 -0.044776003808
          0.54901057482 -2.3195166588 6.3499908265e-07 0.21684102714 -24.502326965 -0.4003341794
          2.89220047 -26.674142838 8.5615351963e-07 -0.1028739363 -19.913911819 -0.022266117856
          2.0337867737 -12.962580681 2.6836983125e-06 1.024821043 -24.147512436 0.77401930094
          11.16157341 -30.041643143 -3.4952017813e-07 -0.11327144504 -17.009746552 0.040221128613
          1.417465806 -4.4311051369 1.2973364392e-06 8.0798511505 -29.795902252 -0.50384414196
          17.283924103 -30.586334229 0.2972381711 0.19477364421 -24.467954636 1.5625221295e-06
          2.2680821419 -6.3633966446 0.51480919123 2.5778565407 -9.9550409317 -1.3166878223
          -0.104770042 -19.831308365 2.7664332265e-06 4.4842419624 -26.654592514 0.52782344818
          0 0 0 8.0832567215 -29.802289963 -0.25168961287
          2.5232195854 -6.4212927818 0.37004998326 14.224755287 -30.299623489 0.27976953983
          -0.94182878733 -21.221353531 0.43617469072 -0.69167512655 -22.619117737 0.44266098738
          0.51554220915 -2.3078136444 0.11135558039 2.8765029907 -26.679998398 0.31905376911
          2.0241465569 -13.008704185 -0.69757336378 11.160412788 -30.036859512 0.26223155856
          8.0854644775 -29.804786682 -4.7286454752e-09 1.6604776382 -26.876293182 -0.72094625235
          1.5410501957 -16.131404877 1.3018957376 2.5145041943 -6.3755803108 1.8836598201e-06
          1.3794023991 -4.4068894386 0.04156030342 1.4491198063 -16.107944489 0.62495905161
          0.2168405056 -24.502326965 0.40033727884 1.6801735163 -26.838523865 -0.35601231456
          -0.10287482291 -19.913911819 0.022271599621 5.2048883438 -29.630977631 -0.52387440205
          17.283735275 -30.561733246 0.59572035074 0 0 0
          2.6659650803 -9.0117149353 1.2158554792 5.2160096169 -29.614830017 -0.26028347015
          14.224368095 -30.275526047 0.56162780523 2.6649179459 -8.8914985657 0.62226468325