<?xml version="1.0"?>
<VTKFile type="UnstructuredGrid" version="0.1" byte_order="LittleEndian" header_type="UInt32" compressor="vtkZLibDataCompressor">
  <UnstructuredGrid>
    <Piece NumberOfPoints="6405" NumberOfCells="4800">
      <PointData>
        <DataArray type="Float32" Name="DISPLACEMENT" NumberOfComponents="3" ComponentName0="X-DISPLACEMENT" ComponentName1="Y-DISPLACEMENT" ComponentName2="Z-DISPLACEMENT" format="ascii" RangeMin="0" RangeMax="245.55934495">
          0 0 0 0 0 0
          1.9612810612 -1.1898325682 -0.91009092331 0 0 0
          1.2769166231 -0.69648736715 -0.70960527658 0 0 0
          1.788826108 -1.31188941 -0.36243915558 1.1102952957 -0.79761195183 -0.28947207332
          0 0 0 3.5252735615 -2.1648919582 -0.93822038174
          0 0 0 3.4729599953 -2.3102903366 -0.48454353213
          2.5661826134 -1.7666484118 -0.78479784727 0 0 0
          0 0 0 1.794829607 -1.3540158272 -3.7068858205e-07
          0.93862134218 -0.46364080906 -0.54960525036 1.1058231592 -0.81838041544 -1.1869186523e-07
          2.5103049278 -1.8827319145 -0.40073230863 0.80621927977 -0.55808091164 -0.22299608588
          3.4337704182 -2.3514592648 -9.8463931408e-07 1.8798125982 -1.4331567287 -0.61798125505
          0 0 0 2.475890398 -1.9213322401 -5.0318675449e-07
          1.8232206106 -1.5405575037 -0.31689742208 0 0 0
          4.9564023018 -3.417299509 -0.88559311628 0 0 0
          0.79926085472 -0.575984478 1.7583202805e-07 0 0 0
          0 0 0 1.7888258696 -1.3118897676 0.36243838072
          3.7825005054 -3.031979084 -0.7522059083 4.969807148 -3.5243446827 -0.45171549916
          0.65803509951 -0.29635998607 -0.37350797653 1.1102948189 -0.79761248827 0.28947177529
          3.79388237 -3.1327357292 -0.38339710236 0.57806652784 -0.39761564136 -0.15467993915
          1.7938693762 -1.5693633556 5.2899835623e-08 3.47295928 -2.3102910519 0.48454144597
          0 0 0 0 0 0
          1.2972679138 -1.2146699429 -0.43932655454 2.8401069641 -2.7249679565 -0.62091910839
          4.9573588371 -3.5633208752 -1.8639647124e-06 2.5103039742 -1.8827329874 0.40073120594
          2.8331699371 -2.8207786083 -0.31529790163 0.80621892214 -0.55808162689 0.2229963392
          3.7851102352 -3.166523695 -1.1611142554e-06 1.2413603067 -1.3193733692 -0.2247838974
          0.59146779776 -0.41185030341 6.2779662358e-07 0 0 0
          6.2953686714 -4.8433184624 -0.79845154285 0 0 0
          4.9396805763 -4.4879693985 -0.69610774517 1.8232196569 -1.5405589342 0.31689742208
          6.3302078247 -4.9232678413 -0.40408164263 1.9612803459 -1.1898334026 0.91008996964
          0 0 0 0 0 0
          1.2228304148 -1.3457050323 7.3050620131e-07 2.823818922 -2.850525856 -3.932670154e-07
          0.23355796933 -0.18883895874 -0.16926477849 4.9709558487 -4.5669593811 -0.35118323565
          1.2769156694 -0.69648849964 0.70960468054 1.985342145 -2.5167756081 -0.48727941513
          0 0 0 4.9698057175 -3.5243461132 0.45171165466
          0.18408584595 -0.31260088086 -0.084740407765 1.9602235556 -2.6038839817 -0.24822321534
          3.7938807011 -3.1327376366 0.38339465857 0.57806587219 -0.39761647582 0.15468104184
          3.7823281288 -4.1987981796 -0.59514373541 0.50261747837 -1.0816233158 -0.27629166842
          6.3312840462 -4.951218605 -3.002806352e-06 3.5252718925 -2.1648936272 0.93821805716
          0 0 0 0 0 0
          3.7965052128 -4.2761135101 -0.30019414425 2.5661804676 -1.7666506767 0.78479647636
          4.9757084846 -4.5943608284 -2.132195732e-06 0.44653254747 -1.1813640594 -0.14435908198
          0.93862068653 -0.46364226937 0.54960530996 0.21151691675 -0.3433676064 1.2571192656e-06
          1.9507972002 -2.6320238113 5.5123763332e-07 2.8331682682 -2.8207805157 0.31529703736
          1.2413593531 -1.3193749189 0.22478531301 3.7975013256 -4.3023767471 -1.2111491969e-06
          1.8798108101 -1.4331594706 0.61798107624 0.44009816647 -1.2114957571 1.5429013729e-06
          2.7107255459 -3.9881708622 -0.49795931578 6.3302049637 -4.9232697487 0.40407547355
          4.9563989639 -3.4173021317 0.88558888435 0 0 0
          7.5305156708 -6.4094786644 -0.72327691317 0 0 0
          0 0 0 1.0086189508 -2.370953083 -0.39593565464
          2.710283041 -4.0622644424 -0.25167730451 7.5659832954 -6.4694676399 -0.36337912083
          6.0298395157 -6.078142643 -0.64452564716 4.9709534645 -4.5669612885 0.3511788249
          0.061456538737 -0.34376242757 -0.18439614773 0 0 0
          3.7824971676 -3.0319824219 0.75220316648 0.65803450346 -0.2963617146 0.373508811
          0.97507143021 -2.4445278645 -0.19191536307 0.18408451974 -0.31260180473 0.08474265784
          -0.0048104682937 -0.39424735308 -0.067853666842 1.9602220058 -2.6038861275 0.24822427332
          6.0621709824 -6.1400184631 -0.32299685478 3.7965025902 -4.2761158943 0.30019161105
          2.7079074383 -4.0889000893 -7.8996485797e-08 7.5722255707 -6.4906096458 -4.4217331379e-06
          0.22376976907 -1.2447613478 -0.3139179647 0.44653099775 -1.1813658476 0.14436219633
          0 0 0 4.7004055977 -5.799551487 -0.56453430653
          1.2972664833 -1.2146731615 0.43932780623 2.8401038647 -2.7249720097 0.6209179759
          0.96549987793 -2.4708542824 1.7754932742e-06 6.0705943108 -6.1614632607 -3.4557317576e-06
          0.0202910956 -0.45904839039 2.7320643312e-06 0.21428366005 -1.2887824774 -0.1297428906
          4.7199397087 -5.8622732162 -0.28329050541 6.295363903 -4.8433218002 0.79844492674
          0 0 0 1.6724760532 -3.8194577694 -0.41347640753
          4.9396753311 -4.48797369 0.69610291719 0.22150875628 -1.3359707594 3.5464788652e-06
          1.6627916098 -3.8940856457 -0.20165550709 4.7250676155 -5.8839793205 -2.470388381e-06
          0.23355682194 -0.18884088099 0.16926658154 2.7102808952 -4.0622673035 0.25167706609
          3.4686794281 -5.5728573799 -0.48305109143 7.5659794807 -6.4694695473 0.36337009072
          0.46069356799 -2.3905732632 -0.29121869802 1.9853394032 -2.516780138 0.4872802496
          0 0 0 0.97506970167 -2.4445304871 0.19191890955
          3.4760248661 -5.6376876831 -0.24260152876 -0.0048128212802 -0.39424812794 0.067858710885
          0.4719786346 -2.4695518017 -0.14174705744 6.0621671677 -6.1400208473 0.32298976183
          3.7823233604 -4.198802948 0.59514087439 0.50261551142 -1.0816268921 0.27629470825
          8.6698179245 -8.0784330368 -0.66460299492 0 0 0
          1.6511646509 -3.9163684845 1.4938295863e-06 7.0544877052 -7.7696957588 -0.60224795341
          8.6995544434 -8.1257553101 -0.33295935392 0 0 0
          -0.021911915392 -0.60377067327 -0.084561184049 7.0819454193 -7.8194637299 -0.3009005785
          3.475992918 -5.6593461037 -1.2604006088e-06 -0.030283147469 -0.64146721363 -0.071414195001
          0.21428103745 -1.2887842655 0.12974984944 0.46398302913 -2.4944620132 3.8502330426e-06
          4.7199363708 -5.8622760773 0.28328543901 5.5856480598 -7.5068745613 -0.53725665808
          -0.2822868824 -1.3867402077 -0.21332393587 8.7064571381 -8.1423969269 -6.1632445068e-06
          0 0 0 -0.28549048305 -1.4533919096 -0.087013579905
          5.6039524078 -7.5581626892 -0.26853951812 7.0901346207 -7.8367714882 -5.1820443332e-06
          0.01406256482 -0.6431632638 3.0452845294e-06 2.7107212543 -3.9881768227 0.49795886874
          2.3100750446 -5.3859934807 -0.38802361488 7.5305085182 -6.4094824791 0.72326731682
          0 0 0 0.70977467299 -3.7194604874 -0.24298417568
          1.662789464 -3.8940889835 0.20165841281 1.008616209 -2.3709585667 0.39593911171
          6.0298323631 -6.0781474113 0.64451807737 0.06145497784 -0.3437653482 0.18440072238
          0.70875442028 -3.8140869141 -0.13679505885 2.3056869507 -5.4577331543 -0.19565565884
          3.4760217667 -5.6376919746 0.24259893596 0.47197565436 -2.4695544243 0.14175462723
          5.6096153259 -7.57573843 -4.2040910557e-06 0.023138618097 -1.5338572264 4.9277600738e-06
          4.2196502686 -7.2975606918 -0.46931272745 -0.14040739834 -2.5701327324 -0.22174595296
          0.22376647592 -1.2447659969 0.31392472982 8.6995487213 -8.1257572174 0.33294680715
          4.7003984451 -5.7995576859 0.5645288825 0 0 0
          2.303119421 -5.4779787064 3.5837933865e-07 0.70534592867 -3.8316609859 3.568894499e-06
          4.2270298004 -7.3490409851 -0.23406079412 7.0819401741 -7.8194665909 0.30088999867
          -0.17041361332 -2.6291251183 -0.096387028694 -0.030285196379 -0.6414681077 0.071419343352
          1.6724722385 -3.8194646835 0.41347908974 4.22930336 -7.3652067184 -3.0403914479e-06
          5.6039471626 -7.5581665039 0.26853096485 -0.28549572825 -1.4533922672 0.087025523186
          -0.15948334336 -2.6560866833 6.2916474235e-06 9.7293319702 -9.8256635666 -0.62151360512
          0 0 0 9.752204895 -9.865524292 -0.31104841828
          3.4686732292 -5.5728650093 0.48304831982 8.0186986923 -9.5368709564 -0.56897950172
          0.46068894863 -2.3905789852 0.2912260592 0.99487370253 -5.25303936 -0.26102992892
          0.0091611687094 -0.78186130524 -0.069908492267 0.70875090361 -3.8140907288 0.13680201769
          2.3056838512 -5.4577374458 0.1956564039 0 0 0
          8.0402097702 -9.5790376663 -0.28373727202 0.98392367363 -5.3355927467 -0.14141152799
          -0.013528097421 -0.80592900515 -0.028800450265 2.90279603 -7.1449270248 -0.3940244019
          0.023787669837 -3.9047279358 -0.27961352468 8.6698074341 -8.0784368515 0.66458976269
          0 0 0 7.0544776917 -7.7697005272 0.60223674774
          9.7583284378 -9.8794755936 -8.3362674559e-06 -0.024955721572 -3.9262299538 -0.11090935022
          2.8926682472 -7.1910552979 -0.19845961034 -0.021912265569 -0.6037710309 0.084564477205
          6.42461586 -9.2965745926 -0.51376545429 -0.019300810993 -1.6618292332 -0.10786171257
          0 0 0 4.2270255089 -7.3490457535 0.23405466974
          -0.1704171896 -2.6291279793 0.096399560571 8.046749115 -9.5935306549 -7.4078843681e-06
          0.9929484129 -5.3586940765 2.3727150165e-06 6.4409241676 -9.3392591476 -0.25573986769
          -0.030909467489 -1.7178924084 -0.049940429628 -0.0071017113514 -0.79991132021 2.1888649826e-06
          5.5856385231 -7.506881237 0.53724771738 -0.28229108453 -1.3867461681 0.21333605051
          2.891862154 -7.2048392296 -1.5031299654e-06 -0.0056797205471 -3.9626772404 5.5219297792e-06
          2.3100693226 -5.3860020638 0.38802430034 6.4456725121 -9.3536367416 -6.4463629315e-06
          -0.070369563997 -1.7412356138 3.7086658722e-06 0.70976889133 -3.7194683552 0.2429907918
          9.7521972656 -9.8655261993 0.31103146076 4.9248399734 -9.1231184006 -0.45967283845
          0 0 0 -0.092672660947 -2.7557611465 -0.13685283065
          4.9341044426 -9.1623821259 -0.22798146307 8.0402030945 -9.5790405273 0.28372219205
          -0.013529212214 -0.80592924356 0.028804413974 0.98391979933 -5.3355975151 0.14141647518
          -0.10155297071 -2.8145642281 -0.060761030763 4.2196416855 -7.2975692749 0.46930649877
          1.4229203463 -7.0185756683 -0.34645482898 2.8926649094 -7.1910614967 0.19845682383
          -0.14041252434 -2.5701398849 0.22175875306 -0.024958796799 -3.9262340069 0.11092062294
          0.2863419652 -5.4418754578 -0.37565869093 1.3959696293 -7.0556664467 -0.16728557646
          4.9362154007 -9.1754350662 -5.3381413636e-06 6.4409174919 -9.3392629623 0.25572675467
          -0.030911074951 -1.7178930044 0.049947608262 0.25884222984 -5.4310498238 -0.1463791132
          -0.093958765268 -2.8550348282 4.4293024075e-06 10.730615616 -11.634465218 -0.5926001668
          0 0 0 0.01843104884 -0.8614872694 -0.033936116844
          1.3931007385 -7.0692710876 7.1918003641e-07 3.484310627 -9.0187749863 -0.41420137882
          8.9331703186 -11.359463692 -0.54335081577 9.7293186188 -9.8256673813 0.62149578333
          0 0 0 0 0 0
          0.27125194669 -5.4678282738 4.238722795e-06 -0.13925588131 -4.0738244057 -0.13180963695
          10.746933937 -11.671499252 -0.29623615742 3.4831397533 -9.0474233627 -0.20627808571
          8.9488296509 -11.39814949 -0.27048826218 8.0186853409 -9.5368757248 0.56896358728
          0.0022603657562 -0.88259506226 -0.014538335614 0.9948669672 -5.2530488968 0.26103520393
          0.009160483256 -0.78186058998 0.069911524653 -0.17487718165 -4.1333303452 -0.099662132561
          4.9340982437 -9.1623878479 0.22797071934 -0.10155526549 -2.8145651817 0.060769833624
          7.2169280052 -11.135869026 -0.49004155397 2.9027888775 -7.1449389458 0.3940218389
          0.023782860488 -3.9047367573 0.27962571383 0 0 0
          -0.010695239529 -1.8269631863 -0.056798912585 10.752064705 -11.68424511 -1.1175854524e-05
          -0.0030128152575 -0.88969671726 9.0383724682e-07 3.4836907387 -9.0599155426 -3.8874572965e-06
          7.2299203873 -11.17403698 -0.24240855873 6.4246029854 -9.2965812683 0.51375174522
          8.9533634186 -11.410634041 -1.0322825801e-05 -0.019302539527 -1.6618281603 0.10786730051
          -0.16723898053 -4.1375083923 5.0087533054e-06 -0.028557976708 -1.8624156713 -0.02554266341
          1.3959678411 -7.0556731224 0.16728755832 0.25884053111 -5.4310555458 0.14638869464
          0.63339322805 -7.1469755173 -0.39547738433 7.231593132 -11.185317993 -9.2960508482e-06
          -0.030180439353 -1.8759918213 1.2149572512e-06 0.64986401796 -7.1540136337 -0.17462341487
          5.5865893364 -10.984654427 -0.43774810433 0 0 0
          -0.063042931259 -2.9552819729 -0.071398854256 10.7469244 -11.671500206 0.29621347785
          0.002259589266 -0.88259452581 0.014539830387 3.483134985 -9.0474300385 0.20627053082
          5.5967383385 -11.017990112 -0.21517847478 4.9248280525 -9.1231279373 0.45966178179
          8.9488201141 -11.398151398 0.27046728134 2.0507233143 -8.917840004 -0.41266831756
          -0.37122011185 -5.7092299461 -0.41685247421 -0.092675276101 -2.7557604313 0.13685971498
          -0.080136552453 -3.0024573803 -0.034256946295 -0.17487995327 -4.1333322525 0.099671855569
          2.028993845 -8.9336843491 -0.19192303717 -0.34934458137 -5.6809058189 -0.18902587891
          0.64953899384 -7.174893856 3.3261014778e-06 1.4229156971 -7.0185885429 0.34645843506
          7.2299108505 -11.174040794 0.24238963425 0.28633794188 -5.4418869019 0.37566971779
          5.59476614 -11.028539658 -8.1966263679e-06 -0.028559431434 -1.8624147177 0.025544682518
          -0.087557479739 -3.0181980133 1.1710792478e-06 2.0070996284 -8.938076973 -1.3784333532e-06
          -0.32835942507 -5.684071064 6.2989456637e-06 -0.14181347191 -4.3008146286 -0.10383877158
          4.0504989624 -10.894936562 -0.40209743381 10.730597496 -11.634468079 0.59257644415
          0 0 0 0.64986288548 -7.1540212631 0.17463091016
          0.018430078402 -0.86148494482 0.033936727792 -0.15438482165 -4.3486170769 -0.051551222801
          3.4843006134 -9.018787384 0.41419419646 8.9331521988 -11.35946846 0.54332882166
          4.0566701889 -10.921233177 -0.19697542489 11.697909355 -13.501134872 -0.57630890608
          0 0 0 -0.13925834 -4.0738244057 0.13181690872
          11.707984924 -13.538889885 -0.28773474693 -0.0013783788309 -0.90497308969 -0.0087916702032
          9.8142766953 -13.231497765 -0.52491873503 5.5967297554 -11.017995834 0.21516188979
          0 0 0 -0.080138489604 -3.002456665 0.034258820117
          9.8247156143 -13.270438194 -0.26086446643 -0.0064372769557 -0.92413014174 -0.0027773450129
          2.0289950371 -8.9336938858 0.191920802 -0.34934702516 -5.6809120178 0.18904183805
          7.2169103622 -11.135875702 0.49002167583 -0.15615558624 -4.3678851128 1.1209604054e-06
          4.0512619019 -10.931638718 -6.9173347583e-06 -0.010697385296 -1.8269592524 0.056799914688
          0.93841224909 -8.8895950317 -0.32024431229 -0.02024993673 -1.9140211344 -0.016525520012
          7.9771747589 -13.011509895 -0.46803697944 -0.13711990416 -7.3874430656 -0.37835916877
          11.711766243 -13.551482201 -1.5070275367e-05 0 0 0
          0.95914149284 -8.9324464798 -0.17130838335 9.8281316757 -13.28234005 -1.423687263e-05
          -0.0070836339146 -0.93002009392 -5.5983986158e-07 7.9837765694 -13.046322823 -0.23026120663
          -0.026937516406 -1.9433662891 -0.0071023781784 -0.12247644365 -7.3965468407 -0.17579384148
          0.63338804245 -7.1469888687 0.39548572898 0.9594322443 -8.932849884 2.0359279915e-06
          -0.16808989644 -5.8064155579 -0.10925114155 -0.15438725054 -4.3486170769 0.051553167403
          2.6719219685 -10.819265366 -0.37465631962 7.9816098213 -13.051978111 -1.2958298612e-05
          5.5865721703 -10.984664917 0.43773078918 4.0566630363 -10.921240807 0.19696165621
          -0.10066277534 -7.4006185532 4.7907024054e-06 -0.030228205025 -1.9536664486 -1.7495275415e-06
          -0.063045985997 -2.9552767277 0.071399532259 11.707972527 -13.538890839 0.28770422935
          6.2186756134 -12.867773056 -0.4055917263 -0.18613745272 -5.8756189346 -0.076599150896
          -0.053264904767 -3.0732917786 -0.024849420413 2.666135788 -10.842937469 -0.18261551857
          2.0507209301 -8.9178571701 0.41266667843 -0.3712258935 -5.7092418671 0.41686874628
          0 0 0 -0.060505740345 -3.1099920273 -0.011015831493
          9.8247032166 -13.270440102 0.26083555818 -0.0064380541444 -0.92412918806 0.002776060719
          6.2106537819 -12.895258904 -0.19339728355 -0.19234451652 -5.8744096756 1.1575810959e-06
          2.6495223045 -10.847344398 -4.8864872042e-06 0.95913916826 -8.9324579239 0.1713128835
          6.1913375854 -12.897257805 -1.1577007172e-05 -0.063355632126 -3.1234560013 -3.2363702758e-06
          7.9837632179 -13.046325684 0.23023474216 -0.02693906799 -1.9433647394 0.0070986710489
          -0.12247680873 -7.3965563774 0.17580515146 -0.14181776345 -4.3008098602 0.10383944213
          4.050485611 -10.894950867 0.40208369493 4.6000199318 -12.793546677 -0.36422738433
          11.697886467 -13.50113678 0.57627725601 0 0 0
          -0.081759989262 -4.4071426392 -0.029294693843 -0.0013805684866 -0.90496999025 0.0087896520272
          9.8142528534 -13.231501579 0.52488857508 -0.18613958359 -5.8756217957 0.076600767672
          2.6661353111 -10.842948914 0.18260605633 4.5848145485 -12.816409111 -0.16803449392
          0.12026827782 -9.1391620636 -0.37702199817 -0.091638803482 -4.452454567 -0.015208801255
          -0.060507804155 -3.1099901199 0.011009227484 6.2106404305 -12.895264626 0.19337333739
          0.10702634603 -9.1330318451 -0.15142340958 1.2583774328 -10.737012863 -0.30049845576
          -0.28964626789 -7.4444732666 -0.090781204402 12.650972366 -15.435585976 -0.56980544329
          0 0 0 10.679105759 -15.166018486 -0.51469284296
          0.93840438128 -8.8896131516 0.32024726272 -0.020253619179 -1.91401577 0.016521243379
          7.9771504402 -13.011516571 0.46800896525 -0.30231520534 -7.5239453316 -0.1184906438
          1.2527649403 -10.775118828 -0.15314902365 -0.13712504506 -7.3874583244 0.37837311625
          12.655997276 -15.475509644 -0.28417474031 0 0 0
          -0.095420338213 -4.4673805237 -4.7963503675e-06 4.5575847626 -12.825055122 -1.0661120541e-05
          -0.020478416234 -0.91596841812 0.016601154581 10.683969498 -15.206708908 -0.25614365935
          -0.016225034371 -0.93429690599 0.0070872702636 0.13228940964 -9.1564006805 -5.1629466924e-08
          8.7229032516 -14.937328339 -0.45503914356 -0.25744491816 -7.5260853767 1.3879095206e-07
          1.2564382553 -10.788492203 -2.3902673547e-06 12.658567429 -15.488505363 -2.0526189473e-05
          0 0 0 -0.034643478692 -1.9359456301 0.020430067554
          8.7275915146 -14.973731995 -0.22384151816 10.685770035 -15.219167709 -1.953896026e-05
          -0.16809344292 -5.8064131737 0.10925064981 2.671913147 -10.819284439 0.37464693189
          -0.016305834055 -0.93965244293 -2.0793372641e-06 -0.032983589917 -1.96349895 0.011003392749
          6.2186508179 -12.867783546 0.40556624532 -0.053269565105 -3.0732848644 0.024842364714
          -0.12093929201 -5.9210481644 -0.037116363645 3.1534378529 -12.764330864 -0.34349617362
          -0.091640986502 -4.4524531364 0.01519906614 4.5848045349 -12.816419601 0.16801291704
          -0.13166168332 -5.9728398323 -0.020702375099 3.1429538727 -12.77169323 -0.16667643189
          0.10703058541 -9.1330442429 0.15142768621 8.7298002243 -14.98051548 -1.7839947759e-05
          -0.032485689968 -1.9727935791 -4.8684514695e-06 6.8272647858 -14.784099579 -0.39321607351
          -0.30231660604 -7.5239505768 0.11849167943 1.2527632713 -10.775130272 0.15314467251
          12.655982971 -15.475510597 0.28413328528 0 0 0
          -0.041828226298 -3.0980119705 0.021414658055 6.7792115211 -14.80098629 -0.19082546234
          10.683954239 -15.206709862 0.25610411167 -0.043566957116 -3.132550478 0.01156976819
          -0.13083472848 -5.9929556847 -6.4020214268e-06 3.1299266815 -12.774676323 -9.6364974524e-06
          -0.016225839034 -0.93429601192 -0.0070914141834 8.7275733948 -14.973733902 0.22380496562
          6.7232089043 -14.788511276 -1.5735944544e-05 -0.044505733997 -3.1442685127 -7.9531664596e-06
          4.5999999046 -12.793563843 0.36420542002 0.41250115633 -10.97250843 -0.40620043874
          -0.032985281199 -1.9634975195 -0.011013170704 -0.081764869392 -4.4071350098 0.029284538701
          -0.64001756907 -9.4118499756 -0.38109537959 0.40934738517 -10.9506464 -0.14977997541
          0.12026800215 -9.1391820908 0.37703073025 -0.60079288483 -9.3979024887 -0.18593895435
          -0.13166347146 -5.9728398323 0.020689370111 3.1429488659 -12.771707535 0.16665768623
          1.2583690882 -10.737030983 0.30049851537 -0.28964710236 -7.4444737434 0.090778484941
          -0.042590882629 -4.4327554703 0.018226722255 5.0983338356 -14.736031532 -0.34642085433
          12.650943756 -15.435587883 0.56976276636 0 0 0
          10.679077148 -15.166021347 0.51465171576 -0.04753338173 -4.4716348648 0.010036173277
          0.40215212107 -10.97300148 -5.3587414186e-06 -0.18144579232 -7.6356773376 -0.07133743912
          1.7159100771 -12.729967117 -0.36682641506 5.0133404732 -14.733802795 -0.16888694465
          -0.020481910557 -0.91596543789 -0.016605930403 -0.31846490502 -9.3542671204 -8.6625828999e-07
          6.779188633 -14.800992012 0.19079267979 -0.043569013476 -3.1325488091 -0.01158553455
          1.6621861458 -12.710644722 -0.16168910265 -0.18380847573 -7.686650753 -0.037301801145
          8.722869873 -14.937333107 0.45500063896 -0.048967160285 -4.4859747887 -1.1075027942e-05
          4.9044890404 -14.716497421 -1.5070390873e-05 -0.034648858011 -1.9359406233 -0.020439885557
          1.6083061695 -12.689795494 -6.4685418693e-06 13.60095787 -17.452526093 -0.56895190477
          0 0 0 -0.17062544823 -7.6934871674 -8.0929485193e-06
          13.602324486 -17.494056702 -0.2837741971 0 0 0
          0.40935853124 -10.950662613 0.14977529645 11.536811829 -17.182126999 -0.51213139296
          -0.1209435463 -5.921040535 0.037102837116 3.1534259319 -12.764354706 0.34347939491
          -0.04061960429 -0.89565068483 0.042545828968 -0.60078930855 -9.3979196548 0.1859420985
          11.538354874 -17.223958969 -0.25558489561 -0.027060590684 -0.91462266445 0.017744990066
          6.8272271156 -14.784111023 0.39317938685 13.603484154 -17.507581711 -2.7948983188e-05
          -0.047535251826 -4.4716339111 -0.010058044456 9.474568367 -16.943628311 -0.454413414
          -0.051350973547 -1.898055315 0.059043992311 5.0133242607 -14.73381424 0.16885627806
          0 0 0 3.5943701267 -14.735103607 -0.35798048973
          -0.03396094963 -5.9553022385 0.0076341023669 -0.041834261268 -3.0980052948 -0.021430032328
          -0.041899185628 -1.9263290167 0.029918838292 9.4732942581 -16.985052109 -0.22642888129
          11.539554596 -17.237356186 -2.6610614441e-05 1.6621952057 -12.710664749 0.16167724133
          -0.040095034987 -5.9965643883 0.0039486973546 3.5752940178 -14.728831291 -0.17538312078
          -0.18380910158 -7.686653614 0.037285603583 -0.02611987479 -0.91982710361 -3.5764051063e-06
          -0.43184670806 -11.23647213 -0.40283599496 9.4734954834 -16.999300003 -2.4508037313e-05
          0.41250652075 -10.972528458 0.40620276332 -0.03887739405 -1.9355500937 -7.8828506958e-06
          -0.040011737496 -6.0119924545 -1.4216573618e-05 -0.38974547386 -11.231305122 -0.17280296981
          3.5575585365 -14.722775459 -1.4181009647e-05 -0.64001893997 -9.4118690491 0.38110992312
          13.60230732 -17.494058609 0.28371787071 7.4093976021 -16.754190445 -0.40222522616
          -0.2000233531 -9.4541978836 -0.075538851321 0 0 0
          -0.042933039367 -3.0435500145 0.066977567971 0.71346127987 -12.83786869 -0.35049918294
          -0.039269283414 -3.078555584 0.034570578486 7.3886675835 -16.783325195 -0.20532752573
          11.538336754 -17.223962784 0.25553116202 -0.18927450478 -9.5249652863 -0.068159766495
          0.73107653856 -12.846155167 -0.16914483905 -0.02706130594 -0.91462230682 -0.017751941457
          -0.042596682906 -4.4327478409 -0.01824775897 5.0983037949 -14.736051559 0.34638810158
          -0.36954635382 -11.209712982 -1.0083599591e-05 -0.18144907057 -7.6356725693 0.071321740746
          1.7159223557 -12.73000145 0.36681932211 7.3657083511 -16.786624908 -2.2142367015e-05
          9.4732713699 -16.985055923 0.2263789922 -0.21432738006 -9.5224542618 -1.0058099178e-05
          -0.041900746524 -1.9263284206 -0.029934430495 -0.038051351905 -3.0899085999 -1.2365959265e-05
          -0.040096081793 -5.9965643883 -0.0039766868576 3.5752892494 -14.72884655 0.17535550892
          0.70854759216 -12.829928398 -6.241742085e-06 2.2893390656 -14.723791122 -0.36456677318
          -0.0071271015331 -7.653649807 -0.0036570152733 2.2361009121 -14.704998016 -0.17355251312
          -0.012422475033 -7.7002091408 -0.0069027068093 13.600924492 -17.452529907 0.56889438629
          0 0 0 -0.38972261548 -11.231331825 0.17279317975
          -0.014060286805 -4.3671092987 0.067601636052 5.4822106361 -16.66085434 -0.36016339064
          -0.016253301874 -4.4062986374 0.03405957669 11.536776543 -17.182130814 0.51207613945
          -0.040624171495 -0.89564865828 -0.04255322367 5.4052934647 -16.661058426 -0.20110730827
          7.3886294365 -16.78332901 0.20528203249 -0.18927134573 -9.5249738693 0.068139709532
          -0.039270937443 -3.0785551071 -0.034594871104 0.73108834028 -12.846177101 0.16913676262
          2.1651461124 -14.672836304 -1.1410660591e-05 -0.010695130564 -7.7185721397 -1.7458067305e-05
          9.4745283127 -16.943634033 0.45436137915 -0.051357485354 -1.8980518579 -0.05905906111
          3.5943591595 -14.735128403 0.35795494914 -0.016342574731 -4.4189457893 -1.6700752894e-05
          -0.033965662122 -5.9552950859 -0.0076607447118 5.2610816956 -16.6281147 -2.0318093448e-05
          14.550566673 -19.561254501 -0.57009714842 0 0 0
          -0.43183171749 -11.236495018 0.40283155441 2.2361135483 -14.705016136 0.17353138328
          0 0 0 12.393327713 -19.290319443 -0.51324248314
          -0.41214793921 -11.288764954 -0.023293333128 -0.012421697378 -7.7002110481 0.0068684052676
          -0.057411748916 -0.84201794863 0.071557372808 -0.15293242037 -13.084212303 -0.35256880522
          14.550434113 -19.603385925 -0.28467199206 7.4093346596 -16.754199982 0.40217638016
          12.392884254 -19.332582474 -0.25664979219 -0.03443531692 -0.86243444681 0.029255287722
          -0.20002053678 -9.4541988373 0.075516305864 -0.36396023631 -11.383239746 -0.13124082983
          -0.042939692736 -3.043545723 -0.067000508308 4.0372986794 -16.643259048 -0.36004981399
          -0.016254203394 -4.4062991142 -0.034092295915 0.71346729994 -12.837897301 0.35048687458
          0.026083000004 -5.8831281662 0.054566115141 5.4052629471 -16.661071777 0.20106606185
          -0.14482760429 -13.096801758 -0.13450595737 0.021269354969 -5.9243898392 0.028143770993
          4.0348782539 -16.656234741 -0.16591151059 10.230484962 -19.047140121 -0.45822769403
          14.550786018 -19.617229462 -3.7398036511e-05 -0.067612446845 -1.805247426 0.099229000509
          0 0 0 10.229301453 -19.089483261 -0.23006515205
          -0.049806989729 -1.8354359865 0.050542417914 12.393111229 -19.346841812 -3.5503147956e-05
          0.98788291216 -14.675546646 -0.31035733223 -0.22505892813 -11.398263931 -1.2388235518e-05
          -0.13614079356 -13.088671684 -1.4444520275e-05 0.0085679935291 -9.485039711 -0.026678133756
          -0.032376069576 -0.86798095703 -4.9504214985e-06 0.9713742733 -14.687914848 -0.14928822219
          4.0266313553 -16.663127899 -1.8799726604e-05 0.019495265558 -9.5466213226 -0.010405009612
          0.022685544565 -5.9367713928 -2.0977033273e-05 2.2893455029 -14.723815918 0.36454606056
          10.228894234 -19.105295181 -3.3023356082e-05 -0.0071291369386 -7.6536445618 0.003624248784
          -0.044068854302 -1.8448323011 -1.0512319932e-05 8.0448417664 -18.830486298 -0.40628069639
          14.550415039 -19.603387833 0.2845968008 0.9339723587 -14.676330566 -1.0784197912e-05
          -0.051003590226 -2.9190998077 0.1178131327 -0.014065640979 -4.367105484 -0.067632257938
          0.033219750971 -9.5763902664 -2.0703346308e-05 5.4821643829 -16.66087532 0.36011901498
          0 0 0 8.049706459 -18.870571136 -0.20824499428
          -0.041877418756 -2.9559979439 0.059270873666 12.392863274 -19.332586288 0.25657832623
          -0.36395180225 -11.383252144 0.13121531904 -0.14480116963 -13.096827507 0.13448780775
          -0.034435652196 -0.86243504286 -0.029264772311 4.0348768234 -16.656248093 0.16587546468
          0.021269891411 -5.9243917465 -0.028184689581 10.22927475 -19.089487076 0.22999849916
          8.0570411682 -18.888435364 -3.050223313e-05 2.7244262695 -16.642198563 -0.33213588595
          0.081333428621 -7.5700058937 0.036205563694 -0.038556259125 -2.9680550098 -1.6029996914e-05
          -0.049807857722 -1.8354371786 -0.050563115627 0.090193487704 -7.6181416512 0.017879003659
          0.97138667107 -14.6879282 0.14926820993 2.6969146729 -16.63168335 -0.15133486688