<?xml version="1.0"?>
<VTKFile type="UnstructuredGrid" version="0.1" byte_order="LittleEndian" header_type="UInt32" compressor="vtkZLibDataCompressor">
  <UnstructuredGrid>
    <Piece NumberOfPoints="6405" NumberOfCells="4800">
      <PointData>
        <DataArray type="Float32" Name="DISPLACEMENT" NumberOfComponents="3" ComponentName0="X-DISPLACEMENT" ComponentName1="Y-DISPLACEMENT" ComponentName2="Z-DISPLACEMENT" format="ascii" RangeMin="0" RangeMax="369.52242161">
          0 0 0 0 0 0
          2.7614080906 -1.5337393284 -1.2853270769 0 0 0
          1.5878663063 -0.8306505084 -0.85605102777 0 0 0
          2.5369811058 -1.7885401249 -0.50870281458 1.3795479536 -1.0561404228 -0.34798970819
          0 0 0 5.069006443 -3.2348594666 -1.3347887993
          0 0 0 5.0015997887 -3.5414590836 -0.67753911018
          3.2041947842 -2.6808261871 -0.95545578003 0 0 0
          0 0 0 2.5552592278 -1.8629076481 -2.7132815106e-08
          0.81220394373 -0.5366037488 -0.46403113008 1.3721755743 -1.0976831913 -3.97898825e-09
          3.1306593418 -2.9429931641 -0.48507481813 0.69478428364 -0.75664311647 -0.18786181509
          4.9509048462 -3.6257939339 -3.0458572553e-08 1.6384949684 -2.3060839176 -0.55565601587
          0 0 0 3.0878167152 -3.0212733746 9.3162748627e-09
          1.55668962 -2.5521457195 -0.28414675593 0 0 0
          7.1585712433 -5.7106928825 -1.2447789907 0 0 0
          0.6915487051 -0.79299092293 1.5505740691e-08 0 0 0
          0 0 0 2.5369811058 -1.7885401249 0.50870275497
          4.7175955772 -5.1923685074 -0.92491310835 7.1767201424 -5.9497303963 -0.62760204077
          -0.10291643441 -0.47754141688 -0.042372670025 1.3795479536 -1.0561404228 0.34798970819
          4.7245054245 -5.4181108475 -0.46887013316 -0.19543212652 -0.71459442377 -0.03680986166
          1.5227799416 -2.6210126877 4.5732893028e-08 5.0015997887 -3.5414590836 0.67753905058
          0 0 0 0 0 0
          -0.06861449033 -2.1799497604 -0.18793573976 2.5566067696 -4.8477406502 -0.61401331425
          7.1542263031 -6.0284209251 -2.0256184285e-08 3.1306593418 -2.9429931641 0.48507484794
          2.5112934113 -5.0561385155 -0.31063526869 0.69478434324 -0.75664317608 0.1878618598
          4.710018158 -5.4877934456 3.463413023e-08 -0.15898250043 -2.4168894291 -0.10624113679
          -0.22271886468 -0.76128089428 3.6337830522e-08 0 0 0
          9.04408741 -8.6933946609 -1.0916436911 0 0 0
          6.1595926285 -8.2288703918 -0.86419183016 1.5566897392 -2.5521459579 0.28414684534
          9.0904750824 -8.8636789322 -0.54911583662 2.7614080906 -1.5337394476 1.2853269577
          0 0 0 0 0 0
          -0.18325063586 -2.488421917 8.3260069061e-08 2.4926297665 -5.1189856529 8.7204654164e-08
          -0.82760035992 -0.75189954042 0.28352603316 6.191529274 -8.392783165 -0.43396794796
          1.5878663063 -0.83065056801 0.85605108738 0.23784428835 -4.6793060303 -0.33134779334
          0 0 0 7.1767201424 -5.9497303963 0.62760204077
          -0.94673585892 -0.97550433874 0.10986024886 0.16639527678 -4.8668141365 -0.17172716558
          4.7245059013 -5.4181108475 0.46887022257 -0.19543209672 -0.71459448338 0.036809936166
          3.5373167992 -7.9018454552 -0.64378190041 -1.3481708765 -2.399579525 0.027230478823
          9.0828390121 -8.9192972183 1.9398539719e-10 5.069006443 -3.234859705 1.3347887993
          0 0 0 0 0 0
          3.5125968456 -8.0488529205 -0.3234564364 3.2041947842 -2.6808264256 0.95545578003
          6.1928987503 -8.4449310303 6.8180924018e-08 -1.5013532639 -2.5739305019 0.025240859017
          0.81220400333 -0.53660386801 0.46403118968 -1.0440868139 -1.0492495298 8.8076738791e-08
          0.15213608742 -4.9265284538 1.4159246575e-07 2.5112934113 -5.0561389923 0.3106354475
          -0.15898242593 -2.4168894291 0.10624130815 3.5040030479 -8.0953359604 1.3486693717e-07
          1.6384950876 -2.306084156 0.55565607548 -1.5379769802 -2.6461114883 1.4060550768e-07
          0.7861597538 -7.7085256577 -0.46096411347 9.0904750824 -8.8636789322 0.54911583662
          7.1585712433 -5.7106928825 1.2447789907 0 0 0
          10.709191322 -12.018754005 -0.95168477297 0 0 0
          0 0 0 -1.4950563908 -4.852335453 -0.22630897164
          0.73005926609 -7.8290729523 -0.23212531209 10.757396698 -12.127402306 -0.47673410177
          7.517244339 -11.60064888 -0.80546492338 6.191529274 -8.392783165 0.43396809697
          -1.1835417747 -1.1948075294 0.51118528843 0 0 0
          4.7175955772 -5.1923685074 0.92491322756 -0.10291635245 -0.47754150629 0.042372766882
          -1.6437892914 -4.9359374046 -0.098603367805 -0.94673579931 -0.97550433874 -0.1098600924
          -1.3348186016 -1.3643074036 0.21648903191 0.16639538109 -4.8668141365 0.1717274487
          7.5527973175 -11.706494331 -0.40183457732 3.5125968456 -8.0488529205 0.32345673442
          0.72250026464 -7.8723578453 2.0340428364e-07 10.757158279 -12.163430214 2.71881202e-08
          -1.9365893602 -2.8999528885 0.04947822541 -1.5013532639 -2.5739305019 -0.025240585208
          0 0 0 4.5590481758 -11.292931557 -0.66522610188
          -0.068614333868 -2.1799497604 0.18793594837 2.556607008 -4.847741127 0.61401349306
          -1.6708116531 -4.9856410027 1.9885388269e-07 7.5594639778 -11.73989296 1.0692962604e-07
          -1.4546505213 -1.4364306927 1.2862091125e-07 -2.2579030991 -2.9591019154 0.058682862669
          4.5467233658 -11.38035202 -0.33237758279 9.04408741 -8.6933946609 1.0916436911
          0 0 0 -1.3203845024 -7.8379888535 -0.49045869708
          6.1595931053 -8.2288703918 0.86419200897 -2.340685606 -2.9996175766 1.6972335004e-07
          -1.4508165121 -7.8407626152 -0.22581107914 4.5443744659 -11.408845901 1.8624450604e-07
          -0.82760030031 -0.75189960003 -0.28352588415 0.7300593853 -7.8290734291 0.23212572932
          1.5237219334 -11.09398365 -0.57373732328 10.757396698 -12.127402306 0.47673416138
          -2.0684099197 -5.5079960823 -0.57835054398 0.23784449697 -4.6793060303 0.33134812117
          0 0 0 -1.6437894106 -4.9359374046 0.098603747785
          1.4813603163 -11.146752357 -0.28535428643 -1.3348186016 -1.3643075228 -0.21648880839
          -2.4113295078 -5.3523774147 -0.2327401787 7.5527973175 -11.706495285 0.40183478594
          3.5373167992 -7.901845932 0.64378219843 -1.3481708765 -2.3995797634 -0.02723021619
          12.176407814 -15.539474487 -0.83821117878 0 0 0
          -1.4706858397 -7.8789954185 2.6233610129e-07 8.790602684 -15.160770416 -0.75472354889
          12.218244553 -15.601449013 -0.4192545712 0 0 0
          -1.0852499008 -1.5339126587 0.60590612888 8.8231878281 -15.220807076 -0.3754709959
          1.4751298428 -11.170490265 2.6601071568e-07 -1.1321246624 -1.6767468452 0.24462203681
          -2.2579033375 -2.9591019154 -0.058682538569 -2.4989087582 -5.3394789696 2.0173483506e-07
          4.5467238426 -11.38035202 0.33237794042 5.6011924744 -14.866174698 -0.67577189207
          -1.9203898907 -3.4582388401 -0.0028425522614 12.221128464 -15.622060776 5.8079077547e-08
          0 0 0 -2.2593817711 -3.4512689114 0.0019996259362
          5.5995116234 -14.908396721 -0.33736428618 8.831076622 -15.239285469 1.4913571533e-07
          -1.1973986626 -1.7624003887 9.5342592488e-08 0.78615999222 -7.7085256577 0.46096453071
          -0.82078748941 -11.260960579 -0.73445755243 10.709191322 -12.018754005 0.95168483257
          0 0 0 -1.6881244183 -8.8135929108 -1.1620960236
          -1.4508165121 -7.8407626152 0.22581158578 -1.4950563908 -4.852335453 0.22630929947
          7.517244339 -11.600649834 0.8054651618 -1.1835417747 -1.1948075294 -0.51118510962
          -1.8997336626 -8.5698156357 -0.51231324673 -0.91619640589 -11.178535461 -0.34076610208
          1.4813604355 -11.146752357 0.28535479307 -2.4113295078 -5.3523774147 0.23274059594
          5.6004948616 -14.922607422 2.3915018232e-07 -2.2499086857 -3.4580852985 1.5475508519e-07
          2.3887193203 -14.656552315 -0.64748972654 -2.1485793591 -6.4737567902 -0.99283337593
          -1.9365893602 -2.8999528885 -0.049477938563 12.218244553 -15.601449966 0.41925469041
          4.5590481758 -11.292931557 0.66522651911 0 0 0
          -0.94261497259 -11.189325333 3.235432473e-07 -1.9635697603 -8.5380296707 2.5978690132e-07
          2.3669810295 -14.66486454 -0.32317715883 8.8231878281 -15.220808029 0.37547129393
          -2.3998937607 -6.2660498619 -0.499627918 -1.1321246624 -1.6767469645 -0.244621858
          -1.3203845024 -7.8379888535 0.49045914412 2.3638763428 -14.676259995 3.2849908393e-07
          5.5995116234 -14.908397675 0.33736476302 -2.2593817711 -3.4512689114 -0.0019992969465
          -2.3848364353 -6.2209186554 2.242618109e-07 13.485201836 -19.152170181 -0.75305247307
          0 0 0 13.519021034 -19.1823349 -0.37640330195
          1.5237221718 -11.09398365 0.57373785973 9.9897851944 -18.802516937 -0.71202325821
          -2.0684099197 -5.5079965591 0.57835096121 -1.101621151 -12.419831276 -1.3717910051
          -1.4909805059 -1.8484455347 0.7473834753 -1.8997336626 -8.5698156357 0.51231378317
          -0.91619646549 -11.178535461 0.34076675773 0 0 0
          10.017843246 -18.83140564 -0.35398793221 -1.112737298 -12.245764732 -0.64364719391
          -1.5940867662 -2.0358502865 0.25639370084 -0.16218529642 -14.756065369 -0.83222943544
          -1.9172888994 -9.9685811996 -1.4092416763 12.176408768 -15.539474487 0.83821129799
          0 0 0 8.790602684 -15.160770416 0.75472384691
          13.523449898 -19.19238472 9.2881812463e-08 -1.9228330851 -9.8349618912 -0.73101198673
          -0.18816483021 -14.668328285 -0.40194413066 -1.0852499008 -1.5339126587 -0.60590600967
          6.6507720947 -18.513729095 -0.67360055447 -2.6296179295 -3.9808588028 -0.010007522069
          0 0 0 2.3669810295 -14.66486454 0.32317781448
          -2.3998937607 -6.2660498619 0.49962839484 10.025508881 -18.839658737 1.9485631242e-07
          -1.1097162962 -12.235354424 3.4992544329e-07 6.6580061913 -18.527357101 -0.33624371886
          -3.007134676 -3.9907307625 -0.060135956854 -1.7650974989 -2.1527552605 6.3825027041e-08
          5.6011929512 -14.866175652 0.67577236891 -1.9203898907 -3.4582388401 0.002842939226
          -0.19255104661 -14.683278084 3.9715303046e-07 -1.8799952269 -9.8021831512 3.2354111568e-07
          -0.82078748941 -11.260960579 0.73445814848 6.6612815857 -18.531949997 2.9592442274e-07
          -2.9931871891 -3.9936323166 1.5766674721e-07 -1.688124299 -8.8135929108 1.1620966196
          13.519021034 -19.1823349 0.37640348077 3.3330380917 -18.289993286 -0.67848443985
          0 0 0 -3.1021821499 -7.3436555862 -1.1799305677
          3.3298065662 -18.274881363 -0.33943870664 10.017843246 -18.83140564 0.35398831964
          -1.5940868855 -2.0358505249 -0.25639358163 -1.1127371788 -12.245764732 0.64364790916
          -3.2580807209 -7.1770296097 -0.64785599709 2.3887195587 -14.656553268 0.6474904418
          -0.58189737797 -15.739261627 -1.3085541725 -0.1881647855 -14.668328285 0.40194493532
          -2.1485791206 -6.4737567902 0.99283391237 -1.9228329659 -9.8349618912 0.73101264238
          -1.5149861574 -13.44666481 -1.3741362095 -0.481349051 -15.664974213 -0.62625569105
          3.3300096989 -18.277299881 3.9734774759e-07 6.6580061913 -18.527357101 0.33624431491
          -3.007134676 -3.9907310009 0.060136333108 -1.4208502769 -13.418912888 -0.7207351923
          -3.2050938606 -7.1521458626 2.8500969051e-07 14.679081917 -22.791830063 -0.69354313612
          0 0 0 -1.5642720461 -2.1682097912 0.85732418299
          -0.41877585649 -15.7038908 4.4392817244e-07 0.62515407801 -18.311973572 -0.84279358387
          11.129030228 -22.461885452 -0.67717248201 13.485201836 -19.152170181 0.75305271149
          0 0 0 0 0 0
          -1.3658567667 -13.412648201 4.153606028e-07 -2.8024885654 -10.976701736 -1.4497779608
          14.705062866 -22.803325653 -0.34644961357 0.63655090332 -18.230260849 -0.41108644009
          11.15210247 -22.472667694 -0.33668002486 9.9897851944 -18.802516937 0.71202367544
          -1.5990474224 -2.3722805977 0.28606411815 -1.1016209126 -12.41983223 1.3717918396
          -1.4909805059 -1.8484456539 -0.74738335609 -2.7324142456 -10.942202568 -0.75589096546
          3.3298065662 -18.274881363 0.3394395113 -3.2580804825 -7.1770296097 0.64785659313
          7.6974081993 -22.174770355 -0.66141736507 -0.1621851474 -14.756065369 0.83223026991
          -1.9172885418 -9.9685821533 1.4092423916 0 0 0
          -2.894900322 -5.1013331413 -0.60379755497 14.710201263 -22.807081223 1.3033702828e-07
          -1.7105153799 -2.5393960476 -1.2517243242e-08 0.64358651638 -18.236537933 4.8641453532e-07
          7.7102575302 -22.173578262 -0.33002215624 6.6507720947 -18.513731003 0.67360115051
          11.159021378 -22.474962234 2.4331708914e-07 -2.6296179295 -3.9808588028 0.0100080017
          -2.6679048538 -10.960651398 3.8830660287e-07 -3.2968969345 -4.9460997581 -0.31806489825
          -0.48134896159 -15.664974213 0.62625658512 -1.4208501577 -13.418912888 0.72073602676
          -1.0591788292 -16.701877594 -1.2499494553 7.7149810791 -22.172843933 3.5583167346e-07
          -3.2399392128 -5.0118775368 2.1210304624e-07 -0.9442474246 -16.724060059 -0.64104896784
          4.3145332336 -21.938573837 -0.6795386672 0 0 0
          -3.1172356606 -9.0359182358 -1.7169369459 14.705062866 -22.803325653 0.34644988179
          -1.5990475416 -2.3722805977 -0.28606411815 0.63655102253 -18.230260849 0.41108739376
          4.3235039711 -21.914810181 -0.34031540155 3.3330383301 -18.289993286 0.67848527431
          11.15210247 -22.472667694 0.3366805017 0.0014569478808 -19.074350357 -1.1937932968
          -2.3213658333 -14.398216248 -1.338765502 -3.1021819115 -7.3436560631 1.1799311638
          -3.0648868084 -8.8838005066 -0.8309314847 -2.7324142456 -10.942202568 0.75589174032
          0.11874228716 -19.023000717 -0.57035827637 -2.2046780586 -14.430724144 -0.68063735962
          -0.88789176941 -16.736366272 5.0437046184e-07 -0.58189713955 -15.739261627 1.3085551262
          7.7102575302 -22.173578262 0.33002287149 -1.5149857998 -13.44666481 1.374137044
          4.3263978958 -21.912698746 4.6882325933e-07 -3.2968969345 -4.946100235 0.31806543469
          -3.0148818493 -8.9077510834 3.5026900491e-07 0.18652229011 -19.046361923 5.3021079793e-07
          -2.1499330997 -14.462496758 4.7382269486e-07 -2.8590598106 -12.479086876 -1.5945271254
          1.489423275 -21.899772644 -0.81869137287 14.679081917 -22.791830063 0.69354343414
          0 0 0 -0.94424730539 -16.724060059 0.64104998112
          -1.5642720461 -2.1682097912 -0.85732406378 -2.7253556252 -12.475473404 -0.77471655607
          0.62515431643 -18.311973572 0.84279459715 11.129030228 -22.461885452 0.67717295885
          1.5176239014 -21.829637527 -0.40138503909 15.796732903 -26.426095963 -0.65544855595
          0 0 0 -2.8024880886 -10.976701736 1.4497787952
          15.815618515 -26.429134369 -0.32721221447 -1.8861449957 -3.0118899345 0.38662168384
          12.222002029 -26.108728409 -0.6500543952 4.3235044479 -21.914810181 0.34031635523
          0 0 0 -3.0648868084 -8.8838014603 0.83093219995
          12.239993095 -26.111429214 -0.32329759002 -2.2453622818 -3.0404741764 0.10712304711
          0.11874244362 -19.023000717 0.57035934925 -2.2046778202 -14.430724144 0.68063831329
          7.6974081993 -22.174770355 0.66141808033 -2.6931545734 -12.500517845 4.3655853688e-07
          1.5300732851 -21.831773758 5.7092523775e-07 -2.894900322 -5.1013331413 0.60379832983
          -0.59439635277 -19.870540619 -1.1234990358 -2.8630597591 -7.1240110397 -1.7992408276
          8.7323083878 -25.82217598 -0.6439344883 -1.8407869339 -17.567771912 -1.1902629137
          15.820839882 -26.429958344 1.6928233038e-07 0 0 0
          -0.48692631721 -19.895715714 -0.56878083944 12.245890617 -26.111074448 2.933202552e-07
          -2.2614629269 -3.2399117947 5.4063349353e-08 8.7473897934 -25.815750122 -0.32116121054
          -2.841157198 -6.8608922958 -0.84064233303 -1.7375766039 -17.606460571 -0.59835582972
          -1.0591784716 -16.701877594 1.2499505281 -0.43669766188 -19.903425217 6.0100808241e-07
          -2.5267026424 -15.618553162 -1.3691232204 -2.7253556252 -12.475473404 0.77471739054
          0.66279494762 -22.46065712 -1.0788083076 8.7526664734 -25.81293869 4.1766423919e-07
          4.3145332336 -21.938573837 0.67953962088 1.5176239014 -21.829637527 0.40138617158
          -1.6982007027 -17.628265381 5.6752332966e-07 -2.816988945 -6.8725938797 3.3906067642e-07
          -3.1172354221 -9.0359182358 1.7169376612 15.815618515 -26.429134369 0.3272125423
          5.3032217026 -25.576360703 -0.66360962391 -2.411798954 -15.666067123 -0.66844063997
          -2.5786921978 -10.822591782 -1.7344580889 0.77123570442 -22.419643402 -0.51610642672
          0.0014572783839 -19.074350357 1.1937943697 -2.3213653564 -14.398216248 1.3387664557
          0 0 0 -2.3988950253 -10.912011147 -0.85480159521
          12.239993095 -26.111431122 0.32329815626 -2.2453625202 -3.0404744148 -0.10712289065
          5.3183999062 -25.552549362 -0.3324765265 -2.3892095089 -15.693247795 5.2110812021e-07
          0.82958287001 -22.430000305 6.2675144363e-07 -0.4869261086 -19.895715714 0.56878209114
          5.3226819038 -25.549013138 5.4165769825e-07 -2.3875293732 -10.886910439 3.8773839606e-07
          8.7473907471 -25.815750122 0.321162045 -2.8411569595 -6.8608922958 0.84064298868
          -1.7375763655 -17.606460571 0.5983569622 -2.8590595722 -12.479086876 1.5945279598
          1.4894235134 -21.899772644 0.81869250536 2.3864076138 -25.489061356 -0.77875441313
          15.796732903 -26.42609787 0.65544891357 0 0 0
          -2.2323694229 -14.030220032 -1.452334404 -1.8861449957 -3.011890173 -0.38662129641
          12.222002983 -26.108730316 0.65005499125 -2.4117987156 -15.666067123 0.66844165325
          0.77123594284 -22.419643402 0.51610773802 2.4209928513 -25.431507111 -0.38289228082
          -1.3610808849 -20.624946594 -1.0728793144 -2.0848829746 -14.211742401 -0.70400768518
          -2.3988950253 -10.912011147 0.85480237007 5.3183999062 -25.552549362 0.33247762918
          -1.2797803879 -20.653356552 -0.53692883253 -0.079562306404 -23.074777603 -1.0131528378
          -2.1450982094 -18.544733047 -1.2016154528 16.868717194 -30.04545784 -0.63414949179
          0 0 0 13.280452728 -29.735614777 -0.63020306826
          -0.59439599514 -19.870540619 1.1235002279 -2.8630597591 -7.1240115166 1.7992414236
          8.7323083878 -25.82217598 0.64393532276 -2.0638856888 -18.593954086 -0.58863955736
          0.0064447596669 -23.087308884 -0.51019859314 -1.8407865763 -17.567771912 1.1902639866
          16.881504059 -30.047288895 -0.31644389033 0 0 0
          -2.0859179497 -14.195094109 4.4820581024e-07 2.4349453449 -25.431877136 6.5694501927e-07
          -0.0039866282605 -4.6804442406 -0.012652363628 13.293668747 -29.737234116 -0.31358274817
          -0.0042815171182 -4.6783919334 -0.012149039656 -1.2561461926 -20.662872314 6.7141422733e-07
          9.7493515015 -29.449998856 -0.62508946657 -2.0594477654 -18.605901718 6.1232725557e-07
          0.039068292826 -23.081134796 7.172967571e-07 16.886386871 -30.047611237 2.0819751967e-07
          0 0 0 -0.0014078553068 -8.5164556503 -0.026522478089
          9.7644433975 -29.444475174 -0.31170481443 13.298441887 -29.736587524 3.4440492414e-07
          -2.526702404 -15.618554115 1.3691242933 0.66279542446 -22.46065712 1.0788096189
          -0.0054681254551 -4.7782173157 1.5960297617e-07 0.0002499112743 -8.9983434677 -0.013447968289
          5.3032217026 -25.576360703 0.66361069679 -2.5786919594 -10.822591782 1.7344589233
          -1.884034276 -16.891263962 -1.213414073 1.3815728426 -25.878681183 -0.97099578381
          -2.0848827362 -14.211742401 0.70400857925 2.4209928513 -25.431507111 0.38289359212
          -1.7759093046 -17.095127106 -0.5816129446 1.47641325 -25.848176956 -0.46636751294
          -1.2797802687 -20.653356552 0.53693020344 9.7696533203 -29.441806793 4.8095159855e-07
          0.00097112788353 -8.9163188934 2.5832272854e-07 6.2815489769 -29.198524475 -0.6400384903
          -2.0638856888 -18.593954086 0.58864074945 0.0064450027421 -23.087308884 0.51020002365
          16.881505966 -30.047288895 0.31644430757 0 0 0
          0.010108401999 -12.001191139 -0.026385644451 6.298833847 -29.179294586 -0.32070621848
          13.293668747 -29.737234116 0.31358343363 0.013470521197 -12.602934837 -0.01265718136
          -1.790497303 -17.085531235 5.2960626817e-07 1.5226178169 -25.850866318 7.4079406431e-07
          -0.0042813140899 -4.6783924103 0.012149326503 9.7644433975 -29.444475174 0.31170579791
          6.3034148216 -29.176258087 6.1657669903e-07 0.013754339889 -12.573377609 3.2884869938e-07
          2.3864078522 -25.489061356 0.77875572443 -0.8673338294 -23.675750732 -0.96867662668
          0.00025006048963 -8.9983434677 0.013448455371 -2.2323691845 -14.030220032 1.4523353577
          -1.6909993887 -21.397014618 -1.0719300508 -0.80130040646 -23.700023651 -0.48879602551
          -1.3610804081 -20.624946594 1.0728806257 -1.6335988045 -21.455305099 -0.52894127369
          -1.7759091854 -17.095127106 0.58161401749 1.4764134884 -25.848176956 0.46636900306
          -0.079561837018 -23.07477951 1.0131542683 -2.145097971 -18.544733047 1.2016166449
          0.014667123556 -14.952347755 -0.026052379981 3.2968788147 -29.073406219 -0.7340862751
          16.868717194 -30.045459747 0.63414990902 0 0 0
          13.280452728 -29.735616684 0.63020372391 0.017269374803 -15.506196976 -0.01248126477
          -0.79044258595 -23.701879501 7.8896249533e-07 -1.5028252602 -19.539007187 -1.015729785
          0.48383450508 -26.322946548 -0.90833681822 3.332182169 -29.028430939 -0.36103332043
          -0.0039862492122 -4.6804442406 0.012652507983 -1.6451654434 -21.459320068 7.146282428e-07
          6.298833847 -29.179294586 0.32070744038 0.013470668346 -12.602934837 0.012657837011
          0.55302923918 -26.3354702 -0.4593411386 -1.4246075153 -19.760637283 -0.48883578181
          9.7493515015 -29.449998856 0.62509042025 0.017551947385 -15.478052139 4.1677654394e-07
          3.3456187248 -29.028434753 7.4379630632e-07 -0.0014075328363 -8.5164556503 0.026522899047
          0.57106643915 -26.327236176 8.3101582504e-07 17.917827606 -33.654380798 -0.62558460236
          0 0 0 -1.449070096 -19.75633049 6.2361141318e-07
          17.925632477 -33.659954071 -0.31214612722 0 0 0
          -0.80130016804 -23.700023651 0.48879757524 14.314116478 -33.348453522 -0.61668133736
          -1.8840339184 -16.891263962 1.2134151459 1.3815733194 -25.878681183 0.97099721432
          1.8750998974 -2.9636585712 -0.45522743464 -1.6335986853 -21.455305099 0.5289427042
          14.323255539 -33.353752136 -0.30705690384 2.2087507248 -3.006572485 -0.13649305701
          6.2815489769 -29.198524475 0.64003968239 17.930011749 -33.661472321 2.4615033567e-07
          0.017269503325 -15.506196976 0.012482106686 10.745269775 -33.064533234 -0.60689973831
          2.9183182716 -7.1175656319 1.7919847965 3.3321824074 -29.028432846 0.36103481054
          0 0 0 2.1392133236 -29.310365677 -0.86780709028
          0.016602773219 -17.567144394 -0.0259680897 0.010108709335 -12.001191139 0.026386287063
          2.9095139503 -6.8403921127 0.83147472143 10.759555817 -33.063877106 -0.30270066857
          14.326979637 -33.354442596 3.9552492126e-07 0.5530294776 -26.3354702 0.45934277773
          0.018385719508 -18.063989639 -0.012545418926 2.2198781967 -29.290910721 -0.41966968775
          -1.4246073961 -19.760637283 0.48883703351 2.2292978764 -3.2078061104 5.6399401815e-10
          -1.1631987095 -24.249221802 -0.9463929534 10.764436722 -33.062896729 5.4530823945e-07
          -0.86733335257 -23.675750732 0.9686781764 2.8819756508 -6.8571181297 1.1377603926e-07
          0.018402285874 -18.041793823 5.1643593224e-07 -1.1161286831 -24.330497742 -0.47211453319
          2.2539937496 -29.289215088 8.4982679027e-07 -1.6909990311 -21.397014618 1.0719314814
          17.925632477 -33.659954071 0.31214660406 7.2381296158 -32.81111145 -0.61385422945
          -1.0830503702 -22.106412888 -0.8307877779 0 0 0
          2.6510877609 -10.842983246 1.7463960648 -0.35531055927 -26.762500763 -0.86309587955
          2.4649310112 -10.935750961 0.85970568657 7.2558078766 -32.79914093 -0.3075363636
          14.323255539 -33.353752136 0.3070577085 -1.0246754885 -22.348098755 -0.40722876787
          -0.29609552026 -26.797798157 -0.43998262286 2.2087504864 -3.006572485 0.13649308681
          0.014667412266 -14.952348709 0.026053223759 3.2968790531 -29.073406219 0.73408770561
          -1.1361370087 -24.33936882 8.2558369741e-07 -1.5028250217 -19.539007187 1.0157310963
          0.48383498192 -26.322946548 0.90833848715 7.2601666451 -32.797992706 6.9343298037e-07
          10.759555817 -33.06388092 0.30270177126 -1.0514603853 -22.358449936 7.295617479e-07
          2.9095141888 -6.8403921127 -0.83147448301 2.4532692432 -10.909514427 2.2541011901e-07
          0.018385827541 -18.063989639 0.012546462938 2.2198784351 -29.290910721 0.41967138648
          -0.29122978449 -26.804418564 8.9576604978e-07 1.0737426281 -29.595672607 -0.8062710762
          0.018865877762 -20.00945282 -0.025377126411 1.1311417818 -29.611989975 -0.41007992625
          0.019626859576 -20.460731506 -0.012547958642 17.917827606 -33.654380798 0.62558507919
          0 0 0 -1.1161285639 -24.330497742 0.47211620212
          2.307517767 -14.063286781 1.453950882 4.2114911079 -32.662010193 -0.69058072567
          2.154481411 -14.255776405 0.70482796431 14.314116478 -33.348457336 0.61668211222
          1.8750998974 -2.9636585712 0.45522755384 4.2455039024 -32.628890991 -0.33899915218
          7.2558078766 -32.799144745 0.30753776431 -1.0246752501 -22.348098755 0.40723022819
          2.4649310112 -10.935750961 -0.85970520973 -0.29609528184 -26.797798157 0.439984411
          1.1393957138 -29.60537529 9.4100761316e-07 0.019265824929 -20.460344315 6.2021052827e-07
          10.745269775 -33.064533234 0.6069008708 2.9183185101 -7.1175656319 -1.7919845581
          2.1392138004 -29.310365677 0.86780875921 2.1551940441 -14.237506866 3.3767858554e-07
          0.016603037715 -17.567144394 0.025969140232 4.2571725845 -32.629150391 8.3442472487e-07
          18.961055756 -37.265449524 -0.62666964531 0 0 0
          -1.1631983519 -24.249221802 0.94639462233 1.1311420202 -29.611989975 0.4100818038
          0 0 0 15.330935478 -36.960670471 -0.60821813345
          -0.64585834742 -24.700426102 -0.66385000944 0.019626960158 -20.460731506 0.012549207546
          1.5792468786 -2.1625521183 -0.88498598337 -0.58579576015 -27.162532806 -0.81294488907
          18.964988708 -37.278308868 -0.31274059415 7.2381296158 -32.811115265 0.61385560036
          15.336919785 -36.973087311 -0.30305761099 1.5969268084 -2.3680274487 -0.30071890354
          -1.0830501318 -22.106412888 0.83078920841 -0.59728336334 -24.949836731 -0.33287265897
          2.6510879993 -10.842983246 -1.7463955879 2.9182229042 -32.772720337 -0.77014040947
          2.154481411 -14.255776405 -0.70482730865 -0.35531008244 -26.762500763 0.86309760809
          1.9586594105 -16.930030823 1.2047046423 4.2455039024 -32.628894806 0.33900079131
          -0.53892421722 -27.268192291 -0.40935507417 1.8459409475 -17.147468567 0.57730060816
          2.9872274399 -32.764415741 -0.37629637122 11.718380928 -36.679065704 -0.5895922184
          18.968921661 -37.282241821 2.8258133966e-07 2.9495460987 -5.0479974747 0.51382857561
          0 0 0 11.732099533 -36.68624115 -0.29420399666
          3.3673038483 -4.9051413536 0.27396339178 15.339793205 -36.976287842 4.4666029453e-07
          0.17252348363 -29.896932602 -0.76049542427 -0.61808025837 -24.979568481 8.4371356479e-07
          -0.55762600899 -27.289260864 9.3847194194e-07 0.022766245529 -22.39553833 -0.02463934198
          1.7120319605 -2.5366923809 9.3890948349e-09 0.22736765444 -29.942710876 -0.38874483109
          3.0121982098 -32.760826111 9.6330620636e-07 0.02247566171 -22.798768997 -0.01253235247
          1.8605692387 -17.136814117 4.509098801e-07 1.0737431049 -29.595672607 0.80627298355
          11.736651421 -36.68806839 6.111855555e-07 0.018866138533 -20.00945282 0.025378381833
          3.3094010353 -4.9723711014 6.9569260575e-08 8.1670284271 -36.425987244 -0.58580642939
          18.964988708 -37.278308868 0.31274116039 0.22945274413 -29.954147339 1.0093277751e-06
          3.2328720093 -9.0248699188 1.7224304676 2.307517767 -14.063286781 -1.4539502859
          0.021796474233 -22.822219849 7.287001722e-07 4.2114911079 -32.662010193 0.690582335
          0 0 0 8.1851110458 -36.423622131 -0.29343014956
          3.1877493858 -8.8611125946 0.83258968592 15.336919785 -36.973087311 0.30305850506
          -0.59728324413 -24.949836731 0.3328743279 -0.53892397881 -27.268194199 0.40935695171
          1.5969268084 -2.3680274487 0.30071893334 2.9872276783 -32.764419556 0.37629827857
          1.8459410667 -17.147468567 -0.57729971409 11.732099533 -36.68624115 0.29420521855
          8.1890897751 -36.42546463 7.7383350572e-07 1.6847188473 -32.918865204 -0.70853078365
          1.5759540796 -19.578046799 0.99715870619 3.1337947845 -8.8879165649 1.7885844272e-07
          3.3673038483 -4.9051413536 -0.27396324277 1.4938117266 -19.813972473 0.47950038314
          0.22736789286 -29.942710876 0.38874685764 1.7345353365 -32.941730499 -0.36204516888
          0.022475764155 -22.798768997 0.012533814646 5.1166982651 -36.257286072 -0.64501094818
          18.961055756 -37.265449524 0.62667018175 0 0 0
          2.9875206947 -12.49524498 1.6158726215 5.1517424583 -36.238044739 -0.31643530726
          15.330935478 -36.960670471 0.60821902752 2.8500032425 -12.487443924 0.78485822678
          -0.64585798979 -24.700426102 0.66385167837 1.7374074459 -32.939128876 1.061309149e-06