<?xml version="1.0"?>
<VTKFile type="UnstructuredGrid" version="0.1" byte_order="LittleEndian" header_type="UInt32" compressor="vtkZLibDataCompressor">
  <UnstructuredGrid>
    <Piece NumberOfPoints="6405" NumberOfCells="4800">
      <PointData>
        <DataArray type="Float32" Name="DISPLACEMENT" NumberOfComponents="3" ComponentName0="X-DISPLACEMENT" ComponentName1="Y-DISPLACEMENT" ComponentName2="Z-DISPLACEMENT" format="ascii" RangeMin="0" RangeMax="315.95657463">
          0 0 0 0 0 0
          2.4848618507 -1.4834827185 -1.1378537416 0 0 0
          1.4932115078 -0.85250288248 -0.80622261763 0 0 0
          2.2814006805 -1.6764608622 -0.44818592072 1.2988321781 -1.0168691874 -0.32770180702
          0 0 0 4.4783353806 -2.9615621567 -1.1548013687
          0 0 0 4.4209308624 -3.1803274155 -0.59119194746
          3.000084877 -2.4807248116 -0.90004229546 0 0 0
          0 0 0 2.2926335335 -1.7336081266 -1.2131093285e-07
          0.90436822176 -0.55020344257 -0.51118272543 1.2926898003 -1.0441372395 -2.997037285e-08
          2.9338388443 -2.6591250896 -0.45795786381 0.76494276524 -0.7053155899 -0.20695078373
          4.3729567528 -3.2399830818 -1.9548903651e-07 1.8536679745 -2.1225423813 -0.63332802057
          0 0 0 2.8946802616 -2.7136206627 -3.3008831224e-08
          1.7658900023 -2.2814040184 -0.3245447278 0 0 0
          6.2332658768 -4.9427232742 -1.0628932714 0 0 0
          0.75625795126 -0.72467195988 5.2533764006e-08 0 0 0
          0 0 0 2.2814006805 -1.6764611006 0.4481857121
          4.3888554573 -4.5031862259 -0.86760383844 6.2557339668 -5.0971179008 -0.54100000858
          0.14652237296 -0.39932891726 -0.1804176569 1.2988321781 -1.0168694258 0.32770177722
          4.4035415649 -4.6466999054 -0.44102835655 0.019211184233 -0.57232820988 -0.097340255976
          1.7328509092 -2.3254835606 1.2560823848e-07 4.4209308624 -3.1803276539 0.59119158983
          0 0 0 0 0 0
          0.51519191265 -1.9245545864 -0.41023027897 2.842913866 -4.2042703629 -0.68525934219
          6.2386775017 -5.1514658928 -2.5029595463e-07 2.9338390827 -2.6591255665 0.4579578042
          2.8195683956 -4.3286552429 -0.34963691235 0.76494276524 -0.70531576872 0.20695090294
          4.3934574127 -4.6936621666 -1.9404739149e-08 0.41383832693 -2.0634410381 -0.21407549083
          -0.0029150447808 -0.593359828 1.3865985693e-07 0 0 0
          7.8051118851 -7.1802334785 -0.93018054962 0 0 0
          5.6965904236 -6.7810406685 -0.79623609781 1.7658901215 -2.2814042568 0.32454499602
          7.8541297913 -7.2861881256 -0.47154647112 2.4848618507 -1.4834830761 1.1378536224
          0 0 0 0 0 0
          0.39028173685 -2.106713295 2.8719037459e-07 2.8072433472 -4.3711137772 2.1101739378e-07
          -0.29132479429 -0.65686446428 -0.20044670999 5.7387003899 -6.8847417831 -0.40202832222
          1.4932115078 -0.85250324011 0.80622255802 1.2533727884 -3.9953587055 -0.56114858389
          0 0 0 6.2557344437 -5.0971183777 0.54099953175
          -0.41132518649 -0.72414940596 -0.087946519256 1.2119555473 -4.096783638 -0.27101752162
          4.4035420418 -4.6467003822 0.44102832675 0.019211145118 -0.57232838869 0.097340531647
          3.8489227295 -6.4737300873 -0.66977149248 -0.17540127039 -2.111205101 -0.41316571832
          7.854133606 -7.3233880997 -2.8777188277e-07 4.4783353806 -2.9615626335 1.1548010111
          0 0 0 0 0 0
          3.8650999069 -6.5741019249 -0.33826872706 3.000084877 -2.4807255268 0.90004229546
          5.7445802689 -6.9212346077 1.0966653141e-09 -0.19102020562 -2.1840419769 -0.17551450431
          0.90436834097 -0.5502038002 0.51118284464 -0.4080144763 -0.79461491108 3.3479079775e-07
          1.191257 -4.1321845055 4.6082180916e-07 2.8195683956 -4.3286557198 0.34963732958
          0.41383835673 -2.063441515 0.21407608688 3.8655340672 -6.610127449 2.9387319955e-07
          1.8536680937 -2.1225430965 0.6333283186 -0.19171343744 -2.2417604923 5.7795745079e-07
          2.1672329903 -6.2360363007 -0.54615622759 7.8541302681 -7.2861890793 0.47154590487
          6.2332663536 -4.9427242279 1.0628927946 0 0 0
          9.2137031555 -9.5820503235 -0.81876051426 0 0 0
          0 0 0 0.14743992686 -3.9700870514 -0.37928625941
          2.159635067 -6.3383536339 -0.27000585198 9.2629966736 -9.6541433334 -0.41194176674
          6.9242396355 -9.2091369629 -0.72436791658 5.7387003899 -6.88474226 0.40202832222
          -1.1186813116 -0.87279385328 -0.17385771871 0 0 0
          4.3888559341 -4.5031871796 0.86760377884 0.14652243257 -0.39932924509 0.18041794002
          0.16000688076 -4.0860171318 -0.19102048874 -0.4113252461 -0.72414952517 0.087947167456
          -1.1543519497 -0.91743153334 -0.1029208824 1.2119556665 -4.0967845917 0.27101847529
          6.9683508873 -9.2843437195 -0.36342421174 3.8650999069 -6.5741024017 0.33826932311
          2.141849041 -6.3668198586 6.2495183784e-07 9.2700986862 -9.6798286438 -3.1446737125e-07
          -1.1131110191 -2.3318610191 -0.31580507755 -0.19102017581 -2.1840422153 0.1755156666
          0 0 0 4.8778681755 -8.889708519 -0.6261484623
          0.51519209146 -1.9245553017 0.41023093462 2.8429141045 -4.2042717934 0.68525981903
          0.14601196349 -4.1146082878 8.215457683e-07 6.9791212082 -9.3105716705 1.8523758527e-08
          -1.086296916 -0.9861998558 6.7142883609e-07 -1.1210509539 -2.4005446434 -0.14708456397
          4.8994488716 -8.969042778 -0.31382393837 7.8051118851 -7.1802349091 0.93017995358
          0 0 0 0.49361175299 -6.0955176353 -0.32502952218
          5.6965904236 -6.7810416222 0.79623609781 -1.1148506403 -2.4291191101 9.6422195384e-07
          0.49162042141 -6.2181434631 -0.18672251701 4.9028978348 -8.9953107834 3.5491353856e-07
          -0.29132452607 -0.65686494112 0.20044742525 2.1596353054 -6.3383541107 0.27000707388
          2.9755821228 -8.6360244751 -0.50624603033 9.2629966736 -9.6541442871 0.41194114089
          -0.89378577471 -4.2391753197 -0.33906191587 1.2533731461 -3.9953596592 0.56114959717
          0 0 0 0.16000688076 -4.0860176086 0.19102212787
          2.976016283 -8.7219390869 -0.25775820017 -1.1543524265 -0.91743153334 0.10292223841
          -0.94048422575 -4.2996616364 -0.13622911274 6.9683508873 -9.2843446732 0.36342424154
          3.8489229679 -6.473731041 0.66977208853 -0.17540100217 -2.1112060547 0.41316694021
          10.484260559 -12.096750259 -0.73236399889 0 0 0
          0.49293842912 -6.2414417267 9.9380156371e-07 8.0697498322 -11.755409241 -0.66658627987
          10.525221825 -12.146485329 -0.36702308059 0 0 0
          -0.29515016079 -1.3475871086 0.074229121208 8.1059389114 -11.808631897 -0.33263999224
          2.9777188301 -8.7471027374 7.1341963803e-07 -0.31904357672 -1.4172865152 0.023801093921
          -1.1210510731 -2.4005451202 0.14708650112 -0.91797626019 -4.339993 1.1843493439e-06
          4.8994488716 -8.9690437317 0.31382465363 5.8620481491 -11.46973896 -0.59517878294
          -0.86065852642 -2.7465307713 -0.0094198090956 10.533399582 -12.164191246 -3.3493046203e-07
          0 0 0 -0.93618357182 -2.8416388035 -0.034805301577
          5.8791656494 -11.523052216 -0.2957598567 8.1162261963 -11.826936722 2.954948819e-08
          -0.33843040466 -1.4338253736 5.9277692799e-07 2.1672332287 -6.2360372543 0.54615747929
          0.8872025013 -8.460975647 -0.37288701534 9.2137031555 -9.5820512772 0.81875985861
          0 0 0 -0.62007123232 -6.3904929161 -0.42380940914
          0.491620332 -6.21814394 0.18672448397 0.14744009078 -3.9700882435 0.37928783894
          6.9242396355 -9.2091388702 0.72436797619 -1.1186813116 -0.87279444933 0.17385919392
          -0.6886920929 -6.3957529068 -0.16455952823 0.87817949057 -8.5526161194 -0.19647617638
          2.976016283 -8.7219390869 0.25775963068 -0.94048434496 -4.2996621132 0.13623146713
          5.8844676018 -11.539201736 3.9163950305e-07 -0.91759359837 -2.8583962917 1.2143094636e-06
          3.7538359165 -11.270816803 -0.51750928164 -1.4987502098 -4.6550531387 -0.31358924508
          -1.1131107807 -2.3318619728 0.3158070147 10.525221825 -12.146486282 0.36702239513
          4.8778681755 -8.8897104263 0.62614917755 0 0 0
          0.89775508642 -8.5811767578 1.0695074479e-06 -0.65752220154 -6.4461092949 1.3246898334e-06
          3.7451877594 -11.313107491 -0.25873658061 8.1059389114 -11.808632851 0.33264002204
          -1.5770647526 -4.6831784248 -0.15120726824 -0.31904357672 -1.4172866344 -0.023799927905
          0.49361181259 -6.095518589 0.32503145933 3.7474946976 -11.326612473 7.6131738069e-07
          5.8791656494 -11.523053169 0.29576066136 -0.93618386984 -2.8416390419 0.034807689488
          -1.4571114779 -4.6937909126 1.6035340877e-06 11.637357712 -14.687846184 -0.66803920269
          0 0 0 11.66859436 -14.722346306 -0.33431428671
          2.9755823612 -8.6360263824 0.50624746084 9.1292877197 -14.378273964 -0.62282037735
          -0.8937856555 -4.2391767502 0.33906432986 -0.24388943613 -8.7330369949 -0.54866617918
          -0.27531892061 -1.6403731108 0.10461339355 -0.6886921525 -6.3957538605 0.16456219554
          0.87817943096 -8.5526170731 0.19647833705 0 0 0
          9.1572847366 -14.415089607 -0.30999943614 -0.28594607115 -8.7018098831 -0.22556480765
          -0.28304982185 -1.6677414179 0.049414884299 1.5252438784 -11.126079559 -0.48897650838
          -1.4009964466 -6.8645677567 -0.63630670309 10.484260559 -12.096752167 0.73236328363
          0 0 0 8.0697498322 -11.755410194 0.66658633947
          11.675782204 -14.734745979 -3.5199923332e-07 -1.4724917412 -6.7488622665 -0.28489041328
          1.494879961 -11.150030136 -0.23496332765 -0.29514971375 -1.3475874662 -0.074227951467
          6.7785716057 -14.130239487 -0.57462280989 -0.67851436138 -3.3311915398 0.040554918349
          0 0 0 3.7451879978 -11.313108444 0.25873810053
          -1.577065587 -4.6831789017 0.15121047199 9.1657600403 -14.427532196 3.3876428773e-08
          -0.26062503457 -8.7465829849 1.458472525e-06 6.7939152718 -14.163121223 -0.284784168
          -0.73123496771 -3.3783230782 0.03856003657 -0.29004982114 -1.6828520298 6.2084183128e-07
          5.8620486259 -11.469740868 0.5951795578 -0.860658288 -2.7465314865 0.0094218840823
          1.4943739176 -11.162144661 1.163927891e-06 -1.4497746229 -6.764541626 1.7529588376e-06
          0.8872025609 -8.4609766006 0.37288925052 6.7989349365 -14.173000336 4.1855312816e-07
          -0.75029367208 -3.3908698559 1.3192193364e-06 -0.6200710535 -6.3904943466 0.42381218076
          11.66859436 -14.72234726 0.33431360126 4.5150074959 -13.972405434 -0.53539979458
          0 0 0 -1.1544208527 -5.1379742622 -0.015609032474
          4.5136313438 -13.987838745 -0.26698306203 9.1572847366 -14.415090561 0.30999949574
          -0.28304979205 -1.6677415371 -0.049413692206 -0.28594598174 -8.7018108368 0.22556778789
          -1.2799870968 -5.219918251 -0.051224369556 3.7538361549 -11.27081871 0.51751083136
          0.23079948127 -11.297042847 -0.6023105979 1.4948801994 -11.15003109 0.23496571183
          -1.4987508059 -4.6550540924 0.31359270215 -1.4724919796 -6.7488627434 0.28489398956
          -1.0306680202 -9.246878624 -0.76048499346 0.23771685362 -11.269424438 -0.28374275565
          4.5146341324 -13.994986534 8.1946552655e-07 6.7939152718 -14.163122177 0.28478500247
          -0.73123496771 -3.3783233166 -0.038557458669 -1.0356686115 -9.1336336136 -0.35744899511
          -1.3098418713 -5.2265586853 2.0019510885e-06 12.700080872 -17.319374084 -0.62391859293
          0 0 0 -0.21755872667 -1.8543375731 0.093069069088
          0.26878994703 -11.295381546 1.6454933984e-06 2.2892789841 -13.868603706 -0.55347973108
          10.119545937 -17.030042648 -0.58941930532 11.637357712 -14.687848091 0.66803842783
          0 0 0 0 0 0
          -1.0113363266 -9.1361055374 2.010355729e-06 -1.9014011621 -7.2620286942 -0.49947586656
          12.722326279 -17.34561348 -0.31205889583 2.2716605663 -13.858728409 -0.26966962218
          10.140533447 -17.057975769 -0.29309737682 9.1292877197 -14.378275871 0.62282037735
          -0.21170675755 -1.8576112986 0.044809617102 -0.2438891381 -8.7330389023 0.54866927862
          -0.27531832457 -1.6403733492 -0.10461217165 -1.999833703 -7.2635378838 -0.31712216139
          4.5136313438 -13.987839699 0.26698470116 -1.2799873352 -5.2199187279 0.051228322089
          7.6452622414 -16.797866821 -0.55172997713 1.525244236 -11.126081467 0.48897901177
          -1.4009963274 -6.8645691872 0.63631033897 0 0 0
          -0.52221637964 -3.7047786713 0.087728336453 12.728437424 -17.354988098 -3.7191992419e-07
          -0.21944110096 -1.8652151823 6.3517285298e-07 2.2618143559 -13.861694336 1.2703067114e-06
          7.6613211632 -16.82081604 -0.27326145768 6.7785716057 -14.13024044 0.57462364435
          10.146989822 -17.067016602 2.5594562914e-08 -0.67851376534 -3.3311920166 -0.040552418679
          -1.9482531548 -7.2278022766 2.5334481961e-06 -0.55634683371 -3.7286477089 0.050425011665
          0.23771695793 -11.269425392 0.28374609351 -1.0356688499 -9.1336345673 0.35745307803
          -0.61442422867 -11.809510231 -0.78734606504 7.6655592918 -16.826904297 4.2840648007e-07
          -0.57003504038 -3.7409303188 1.3981421034e-06 -0.58727639914 -11.729741096 -0.37394350767
          5.2597775459 -16.647153854 -0.52414673567 0 0 0
          -0.93585789204 -5.6804842949 0.017668483779 12.722326279 -17.345615387 0.31205815077
          -0.21170666814 -1.8576114178 -0.044808384031 2.2716608047 -13.858729362 0.26967218518
          5.2704281807 -16.652442932 -0.26091131568 4.5150074959 -13.972407341 0.53540146351
          10.140532494 -17.057975769 0.29309740663 0.73748731613 -13.95671463 -0.61174499989
          -1.8748775721 -9.7314300537 -0.87527436018 -1.154420495 -5.1379752159 0.01561253611
          -1.0168888569 -5.7284369469 0.023152455688 -1.9998346567 -7.2635388374 0.31712728739
          0.76489555836 -13.932085991 -0.30441910028 -1.8648824692 -9.6308326721 -0.45372360945
          -0.55392885208 -11.740327835 2.2088486276e-06 0.23079973459 -11.297044754 0.60231393576
          7.6613211632 -16.82081604 0.27326229215 -1.0306681395 -9.2468805313 0.76048904657
          5.2710762024 -16.654485703 8.5158478669e-07 -0.5563467145 -3.7286479473 -0.050422243774
          -1.0513277054 -5.7474608421 2.1880689474e-06 0.79991477728 -13.946904182 1.7585194882e-06
          -1.8615545034 -9.5978622437 2.7451828828e-06 -1.4208734035 -7.759262085 -0.027115495875
          2.9938473701 -16.56930542 -0.54044687748 12.700080872 -17.319374084 0.62391781807
          0 0 0 -0.58727669716 -11.72974205 0.37394791842
          -0.21755796671 -1.8543378115 -0.093067757785 -1.6050388813 -7.8844046593 -0.10623877496
          2.2892794609 -13.868605614 0.55348235369 10.119545937 -17.030044556 0.58941936493
          2.9961810112 -16.549926758 -0.26984092593 13.708744049 -19.973327637 -0.59884679317
          0 0 0 -1.9014021158 -7.2620301247 0.49948123097
          13.722691536 -19.997955322 -0.29910168052 -0.13769213855 -1.9817786217 0.067732751369
          11.065989494 -19.691408157 -0.56529510021 5.2704281807 -16.652442932 0.26091301441
          0 0 0 -1.0168887377 -5.7284374237 -0.023148184642
          11.080293655 -19.717554092 -0.28089791536 -0.12839275599 -1.9742423296 0.030811129138
          0.76489561796 -13.932086945 0.30442261696 -1.8648828268 -9.6308326721 0.45372906327
          7.6452622414 -16.797868729 0.5517308116 -1.6188174486 -7.8911008835 2.8733090858e-06
          2.9886248112 -16.548435211 1.3173741991e-06 -0.52221542597 -3.7047789097 -0.087725691497
          -0.1982742399 -14.428277969 -0.77237790823 -0.32199946046 -3.9521353245 0.070452697575
          8.4833126068 -19.458496094 -0.52668637037 -1.4151080847 -12.354562759 -0.88883119822
          13.727592468 -20.006370544 -4.0683920588e-07 0 0 0
          -0.15722697973 -14.371951103 -0.36813437939 11.084951401 -19.725418091 -5.6593711939e-09
          -0.13164675236 -1.9782003164 6.3308442577e-07 8.4976501465 -19.479656219 -0.26023724675
          -0.33176997304 -3.9536581039 0.04306846112 -1.3849056959 -12.27898407 -0.44716060162
          -0.61442452669 -11.809512138 0.78735035658 -0.12478755414 -14.386449814 2.2709291443e-06
          -2.4531831741 -10.25799942 -0.88721638918 -1.6050390005 -7.8844051361 0.106244497
          1.2860254049 -16.663326263 -0.62111693621 8.5008935928 -19.483449936 4.0538444068e-07
          5.2597775459 -16.647155762 0.5241484642 2.9961812496 -16.549926758 0.26984354854
          -1.3762316704 -12.25965023 2.8295444281e-06 -0.33879730105 -3.9630126953 1.4099919099e-06
          -0.93585717678 -5.6804847717 -0.017664397135 13.722691536 -19.997955322 0.29910084605
          5.9819755554 -19.302879333 -0.49239984155 -2.4927258492 -10.209523201 -0.47317752242
          -0.55593293905 -6.0086202621 0.06820756197 1.3170202971 -16.626102448 -0.30489262938
          0.73748749495 -13.956716537 0.61174851656 -1.8748780489 -9.7314319611 0.8752797246
          0 0 0 -0.59946733713 -6.046860218 0.035771172494
          11.080293655 -19.717556 0.28089788556 -0.12839263678 -1.9742423296 -0.030809894204
          5.9952459335 -19.306507111 -0.24372281134 -2.4806089401 -10.179821014 3.4499184949e-06
          1.3471581936 -16.632730484 1.7757704427e-06 -0.15722726285 -14.371952057 0.36813890934
          5.9943394661 -19.305591583 8.3863545797e-07 -0.61750662327 -6.0658149719 2.2275223728e-06
          8.4976501465 -19.479656219 0.26023805141 -0.33176973462 -3.9536581039 -0.043065667152
          -1.3849061728 -12.278985023 0.44716623425 -1.4208730459 -7.7592630386 0.027120696381
          2.9938476086 -16.569307327 0.54044950008 3.6116762161 -19.234212875 -0.5048635006
          13.708743095 -19.973327637 0.59884595871 0 0 0
          -0.87184101343 -8.2697973251 -0.021830745041 -0.13769133389 -1.9817786217 -0.067731425166
          11.065989494 -19.691410065 0.56529504061 -2.4927265644 -10.209524155 0.47318446636
          1.3170204163 -16.626104355 0.30489617586 3.6198885441 -19.211706161 -0.25201392174
          -0.96401363611 -15.027266502 -0.86394989491 -0.9583439827 -8.3451576233 -0.0018424886512
          -0.59946721792 -6.046860218 -0.035766791552 5.9952459335 -19.306509018 0.24372448027
          -0.93162566423 -14.966814041 -0.42553064227 0.2206081599 -17.047676086 -0.73632389307
          -2.0436081886 -12.969768524 -1.0039852858 14.695575714 -22.656772614 -0.5892855525
          0 0 0 11.990629196 -22.375034332 -0.55094200373
          -0.19827464223 -14.428279877 0.77238231897 -0.32199835777 -3.9521355629 -0.070449978113
          8.4833126068 -19.458498001 0.52668714523 -2.0269150734 -12.888798714 -0.4981790185
          0.25852814317 -16.996717453 -0.35556611419 -1.4151086807 -12.354563713 0.88883680105
          14.702279091 -22.683965683 -0.29378175735 0 0 0
          -0.99452036619 -8.3913640976 2.9973839446e-06 3.6129863262 -19.209222794 1.295751872e-06
          -0.040116306394 -2.0220017433 0.031269803643 11.998020172 -22.403377533 -0.2738520503
          -0.031373105943 -2.0095071793 0.013204691 -0.92366099358 -14.955586433 2.7955140922e-06
          9.3062810898 -22.132650375 -0.50731992722 -2.0203297138 -12.867934227 3.410488489e-06
          0.27955707908 -16.997997284 2.2362505661e-06 14.705672264 -22.692750931 -4.7050053809e-07
          0 0 0 -0.069750353694 -4.0239439011 0.040617980063
          9.3163814545 -22.15685463 -0.25014913082 12.00079155 -22.411535263 -7.0863315216e-08
          -2.4531843662 -10.258001328 0.88722336292 1.2860255241 -16.663330078 0.62112045288
          -0.031040621921 -2.0122931004 6.0759032294e-07 -0.064272470772 -4.0197806358 0.021059174091
          5.9819755554 -19.302881241 0.49240148067 -0.55593198538 -6.008620739 -0.068203441799
          -1.2015377283 -10.705199242 -0.088610060513 1.8625444174 -19.355604172 -0.61695808172
          -0.95834416151 -8.3451576233 0.0018483267631 3.6198885441 -19.211708069 0.25201648474
          -1.4085228443 -10.940628052 -0.18114408851 1.8926061392 -19.30922699 -0.29705533385
          -0.93162614107 -14.966814995 0.42553621531 9.3195924759 -22.160888672 3.4023057083e-07
          -0.062413066626 -4.0258550644 1.3572600892e-06 6.6749453545 -21.965509415 -0.46248048544
          -2.0269155502 -12.888799667 0.49818584323 0.25852787495 -16.99671936 0.35557058454
          14.702279091 -22.683965683 0.29378080368 0 0 0
          -0.097443409264 -6.1291108131 0.046174414456 6.6777634621 -21.971195221 -0.23116917908
          11.998019218 -22.40337944 0.27385190129 -0.094292007387 -6.146042347 0.024508051574
          -1.3973783255 -10.937964439 3.573339427e-06 1.9147714376 -19.309455872 1.7196603039e-06
          -0.031372983009 -2.0095071793 -0.013203506358 9.3163814545 -22.15685463 0.25014981627
          6.6707439423 -21.969455719 7.6316024433e-07 -0.093819968402 -6.1687955856 2.1414120965e-06
          3.6116762161 -19.234214783 0.50486600399 -0.56955093145 -17.637268066 -0.82230001688
          -0.064272232354 -4.0197806358 -0.021056480706 -0.8718405962 -8.2697973251 0.021836226806
          -1.526232481 -15.735001564 -0.98013293743 -0.54731589556 -17.575334549 -0.39918226004
          -0.96401447058 -15.02726841 0.86395537853 -1.5054210424 -15.656046867 -0.47606778145
          -1.4085234404 -10.940629005 0.18115119636 1.8926061392 -19.30922699 0.29705876112
          0.22060768306 -17.047677994 0.73632824421 -2.0436091423 -12.969770432 1.0039920807
          -0.12182541192 -8.3879137039 0.052583869547 4.1817126274 -21.887233734 -0.47091150284
          14.695575714 -22.656774521 0.58928453922 0 0 0
          11.990629196 -22.37503624 0.55094176531 -0.12154596299 -8.4875097275 0.027961328626
          -0.54957062006 -17.557254791 2.6703871754e-06 -2.2938928604 -13.757876396 -1.1848733425
          0.67422819138 -19.650333405 -0.69824486971 4.1806559563 -21.866796494 -0.23769381642
          -0.040115509182 -2.0220017433 -0.031268514693 -1.5099117756 -15.634002686 3.252866918e-06
          6.6777629852 -21.971195221 0.231170699 -0.094291843474 -6.146042347 -0.024503847584
          0.69936138391 -19.594854355 -0.33912539482 -2.270980835 -13.654450417 -0.57726234198
          9.3062810898 -22.132652283 0.50732052326 -0.12324227393 -8.5238981247 2.8569154438e-06
          4.1670794487 -21.864057541 1.2009570582e-06 -0.069749265909 -4.0239439011 -0.040615357459
          0.70691466331 -19.579362869 2.1325865873e-06 15.680391312 -25.389333725 -0.5898655653
          0 0 0 -2.2712342739 -13.62315464 3.8420134842e-06
          15.681395531 -25.420171738 -0.29388317466 0 0 0
          -0.54731637239 -17.575336456 0.39918759465 12.906541824 -25.105836868 -0.54640340805
          -1.2015380859 -10.705200195 0.088616549969 1.8625442982 -19.355606079 0.61696141958
          0.058713082224 -1.9652910233 -0.00498893857 -1.5054216385 -15.656047821 0.47607430816
          12.908165932 -25.137161255 -0.27183178067 0.065966390073 -1.9563077688 -0.0043184352107
          6.6749448776 -21.965511322 0.46248194575 15.683080673 -25.429931641 -5.7351610394e-07
          -0.12154603004 -8.4875097275 -0.027955735102 10.128927231 -24.856002808 -0.49922332168
          0.18457236886 -3.9204394817 0.0081721032038 4.1806554794 -21.866798401 0.23769621551
          0 0 0 2.4522967339 -22.014879227 -0.60120081902
          -0.14693503082 -10.934926987 0.063621066511 -0.09744246304 -6.1291103363 -0.04617042467
          0.2040784061 -3.9184086323 -0.0017337173922 10.132223129 -24.883808136 -0.24689355493
          12.909457207 -25.146266937 -1.772316125e-07 0.6993611455 -19.594854355 0.33912962675
          -0.15703187883 -11.09803009 0.028921911493 2.4791710377 -21.96437645 -0.28577941656
          -2.2709815502 -13.65445137 0.57727003098 0.069765664637 -1.9594147205 5.576578701e-07
          -1.099406004 -18.3972435 -0.92645013332 10.133759499 -24.890111923 2.3094806068e-07
          -0.56955188513 -17.637269974 0.82230520248 0.21417067945 -3.9259243011 1.2433962411e-06
          -0.15976579487 -11.180997849 3.418206461e-06 -1.0837987661 -18.314538956 -0.44525209069
          2.4952292442 -21.958293915 1.6148777604e-06 -1.5262336731 -15.735003471 0.98013937473
          15.681395531 -25.420171738 0.29388201237 7.3413796425 -24.666116714 -0.45373556018
          -1.7171109915 -16.622598648 -1.1563054323 0 0 0
          0.3737103343 -5.9669690132 0.020268846303 -0.20245827734 -20.144720078 -0.77113831043
          0.41995850205 -5.9961385727 0.0095880115405 7.3434066772 -24.678506851 -0.22836990654
          12.908165932 -25.137161255 0.27183139324 -1.6609777212 -16.532934189 -0.54601252079
          -0.19441795349 -20.0750103 -0.37308287621 0.065966501832 -1.9563076496 0.0043195271865
          -0.12182490528 -8.3879127502 -0.052578676492 4.1817121506 -21.887235641 0.47091385722
          -1.1073842049 -18.277570724 3.017785275e-06 -2.2938942909 -13.757878304 1.1848810911
          0.67422765493 -19.650335312 0.69824898243 7.3426837921 -24.680641174 6.4250326659e-07
          10.132223129 -24.883808136 0.24689400196 -1.6845005751 -16.483320236 3.5375169318e-06
          0.20407859981 -3.9184083939 0.0017361876089 0.43914732337 -6.0132603645 1.9472788608e-06
          -0.15703231096 -11.09803009 -0.028915224597 2.4791710377 -21.964378357 0.28578263521
          -0.2126595974 -20.040891647 2.4898222364e-06 1.1848995686 -22.227474213 -0.66414016485
          -0.20278191566 -14.518032074 0.010504975915 1.1960940361 -22.169006348 -0.32287141681
          -0.21689705551 -14.893548965 -0.0038479510695 15.680390358 -25.389335632 0.58986437321
          0 0 0 -1.0837994814 -18.314540863 0.44525811076
          0.6452563405 -8.2093896866 0.11292188615 4.7216486931 -24.559932709 -0.45565310121
          0.73186904192 -8.2732448578 0.050603576005 12.906540871 -25.105838776 0.54640299082
          0.05871380493 -1.9652907848 0.0049901246093 4.7230176926 -24.547281265 -0.23124484718
          7.3434062004 -24.678506851 0.22837118804 -1.6609783173 -16.532934189 0.54601967335
          0.41995862126 -5.9961380959 -0.0095841828734 -0.19441843033 -20.075012207 0.37308785319
          1.1903607845 -22.141313553 1.9852179776e-06 -0.21678851545 -14.739046097 3.8511307139e-06
          10.128926277 -24.856004715 0.49922373891 0.18457332253 -3.9204390049 -0.008169695735
          2.4522964954 -22.014881134 0.60120397806 0.76663315296 -8.3161802292 2.5606859708e-06
          -0.14693535864 -10.934926987 -0.063614845276 4.7179503441 -24.547870636 1.0677382534e-06
          16.671396255 -28.18727684 -0.59608972073 0 0 0
          -1.0994073153 -18.3972435 0.92645609379 1.1960937977 -22.169008255 0.32287538052
          0 0 0 13.822556496 -27.901777267 -0.5490437746
          -1.2404778004 -19.319578171 -1.0299949646 -0.21689775586 -14.893548965 0.0038554412313
          0.13926172256 -1.8200076818 -0.030878277496 -0.76924949884 -20.845291138 -0.85810619593
          16.668800354 -28.221357346 -0.29723134637 7.3413791656 -24.666118622 0.45373681188
          13.820342064 -27.935684204 -0.27347666025 0.14827367663 -1.8205490112 -0.017925817519
          -1.7171125412 -16.622600555 1.1563124657 -1.1755843163 -19.273954391 -0.47979933023
          0.37371110916 -5.9669685364 -0.020265223458 3.0704154968 -24.651952744 -0.5809083581
          0.73186892271 -8.2732448578 -0.050598576665 -0.20245921612 -20.144721985 0.77114313841
          0.96388089657 -10.611338615 0.17954598367 4.7230176926 -24.547283173 0.23124697804
          -0.76275390387 -20.761974335 -0.40977421403 1.1634085178 -10.83557415 0.22126838565
          3.0905065536 -24.603298187 -0.27480894327 10.952548027 -27.648305893 -0.50074535608
          16.669235229 -28.232242584 -7.2650408356e-07 0.39155617356 -3.6426124573 -0.01099662669
          0 0 0 10.952239037 -27.678283691 -0.24873584509
          0.42920938134 -3.658031702 -0.012029378675 13.820383072 -27.945991516 -3.3169933999e-07
          0.20095212758 -22.58807373 -0.71944350004 -1.2260638475 -19.19562912 3.1943270642e-06
          -0.8097205162 -20.701917648 2.7453756957e-06 -0.19495382905 -17.475502014 -0.041618652642
          0.15551710129 -1.8261332512 5.0556309361e-07 0.19611915946 -22.517654419 -0.34971389174
          3.0988376141 -24.592926025 1.4858318309e-06 -0.19298917055 -17.879066467 -0.022461144254
          1.1535092592 -10.836705208 3.0372571018e-06 1.1848990917 -22.22747612 0.66414403915
          10.953038216 -27.686546326 7.8478819887e-08 -0.20278318226 -14.518033028 -0.010498348624
          0.44571790099 -3.667593956 1.1004807448e-06 8.0526409149 -27.436180115 -0.4597813189
          16.668800354 -28.221359253 0.29722988605 0.16199308634 -22.470439911 2.2813569558e-06
          0.75947642326 -5.5820531845 0.046743236482 0.64525663853 -8.2093887329 -0.11291719228
          -0.19593638182 -17.738409042 3.5722894154e-06 4.7216482162 -24.559934616 0.45565521717
          0 0 0 8.0546188354 -27.454393387 -0.22904798388
          0.83968347311 -5.6176419258 0.011818133295 13.82034111 -27.935684204 0.2734760046
          -1.1755850315 -19.273954391 0.47980576754 -0.76275455952 -20.761974335 0.40977969766
          0.14827373624 -1.820548892 0.017926802859 3.0905063152 -24.603298187 0.2748118937
          1.163408041 -10.835573196 -0.22126246989 10.952239037 -27.678285599 0.2487359941
          8.0571079254 -27.459499359 4.9810074643e-07 1.7600436211 -24.778676987 -0.63294184208
          2.1048343182 -13.602455139 1.2564474344 0.87524265051 -5.6312031746 1.6824897102e-06
          0.42920950055 -3.6580314636 0.012031560764 2.0784292221 -13.494185448 0.61307281256
          0.19611871243 -22.517654419 0.3497184217 1.7605330944 -24.723745346 -0.30817827582
          -0.19298996031 -17.879066467 0.02246809192 5.3238396645 -27.289556503 -0.45493265986
          16.671396255 -28.187278748 0.59608823061 0 0 0
          1.2470391989 -7.6382884979 0.096183888614 5.3264379501 -27.28332901 -0.22662688792