<?xml version="1.0"?>
<VTKFile type="UnstructuredGrid" version="0.1" byte_order="LittleEndian" header_type="UInt32" compressor="vtkZLibDataCompressor">
  <UnstructuredGrid>
    <Piece NumberOfPoints="6405" NumberOfCells="4800">
      <PointData>
        <DataArray type="Float32" Name="DISPLACEMENT" NumberOfComponents="3" ComponentName0="X-DISPLACEMENT" ComponentName1="Y-DISPLACEMENT" ComponentName2="Z-DISPLACEMENT" format="ascii" RangeMin="0" RangeMax="252.15264293">
          0 0 0 0 0 0
          2.0441038609 -1.2546643019 -0.94588273764 0 0 0
          1.3133370876 -0.74422764778 -0.73010075092 0 0 0
          1.8675820827 -1.3856049776 -0.37605386972 1.1431635618 -0.852219522 -0.29786112905
          0 0 0 3.6664903164 -2.3069183826 -0.96816748381
          0 0 0 3.6157166958 -2.461265564 -0.49977591634
          2.63671422 -1.895981431 -0.80320698023 0 0 0
          0 0 0 1.874557972 -1.4299573898 1.2338153965e-06
          0.94952923059 -0.50996541977 -0.56026375294 1.1386355162 -0.87421303988 5.4284521411e-07
          2.5821063519 -2.0198504925 -0.41040831804 0.81676441431 -0.60994535685 -0.22684013844
          3.5754368305 -2.5047810078 2.5811377782e-06 1.9101183414 -1.5480188131 -0.62404692173
          0 0 0 2.5473234653 -2.0607128143 1.2967152543e-06
          1.8529056311 -1.6649384499 -0.3205652535 0 0 0
          5.1382308006 -3.6614642143 -0.90551328659 0 0 0
          0.81133842468 -0.62896519899 -1.9140421159e-07 0 0 0
          0 0 0 1.8675817251 -1.3856037855 0.37605625391
          3.8807771206 -3.2672562599 -0.7653695941 5.155333519 -3.7734792233 -0.461887151
          0.6953612566 -0.34307003021 -0.37936854362 1.1431639194 -0.8522182107 0.29786223173
          3.8947758675 -3.373269558 -0.39016056061 0.60729753971 -0.45529195666 -0.15942157805
          1.8217422962 -1.6969732046 -9.200487483e-08 3.6157164574 -2.4612629414 0.49978113174
          0 0 0 0 0 0
          1.297955513 -1.3209843636 -0.42539718747 2.8841528893 -2.9539637566 -0.62535464764
          5.1426253319 -3.814160347 4.1568005145e-06 2.5821070671 -2.0198478699 0.41041097045
          2.8756999969 -3.0555121899 -0.31778770685 0.81676471233 -0.60994380713 0.22683981061
          3.8861312866 -3.4087102413 2.2756114504e-06 1.239202261 -1.4381418228 -0.22051720321
          0.60252714157 -0.47205522656 -1.2561102949e-06 0 0 0
          6.4989695549 -5.2003417015 -0.80753231049 0 0 0
          5.053375721 -4.843585968 -0.70466166735 1.8529063463 -1.6649355888 0.32056510448
          6.5373091698 -5.2810435295 -0.40889382362 2.0441045761 -1.2546620369 0.94588512182
          0 0 0 0 0 0
          1.2151429653 -1.4676219225 -1.6354226773e-06 2.8656146526 -3.0866103172 3.0676150686e-07
          0.2819494009 -0.28931128979 -0.15554626286 5.0871458054 -4.9235329628 -0.35546451807
          1.3133382797 -0.74422496557 0.73010200262 1.9770098925 -2.7402522564 -0.47968587279
          0 0 0 5.1553339958 -3.773475647 0.46189552546
          0.24484653771 -0.43039086461 -0.082507163286 1.9430851936 -2.8332555294 -0.24481751025
          3.8947770596 -3.3732657433 0.39016517997 0.60729837418 -0.45529025793 0.15941919386
          3.8300375938 -4.5606360435 -0.6036080718 0.43821612 -1.1938778162 -0.22436882555
          6.5383338928 -5.3094763756 5.9067106122e-06 3.6664915085 -2.3069133759 0.96817284822
          0 0 0 0 0 0
          3.8428046703 -4.6381549835 -0.30405190587 2.6367163658 -1.8959760666 0.80320978165
          5.0923604965 -4.9514546394 3.4865220186e-06 0.38032352924 -1.314499855 -0.12657390535
          0.94952964783 -0.50996214151 0.56026357412 0.24776491523 -0.46615538001 -2.7159526326e-06
          1.9322272539 -2.8614192009 -1.8233305354e-06 2.875701189 -3.0555081367 0.31778839231
          1.2392030954 -1.4381387234 0.22051393986 3.8436238766 -4.6645131111 9.8975260698e-07
          1.910119772 -1.5480128527 0.62404692173 0.36925709248 -1.3458245993 -3.275495601e-06
          2.6922624111 -4.3728866577 -0.50845229626 6.5373101234 -5.2810387611 0.40890571475
          5.1382331848 -3.6614568233 0.90552186966 0 0 0
          7.7378163338 -6.8745555878 -0.72447735071 0 0 0
          0 0 0 0.8542675972 -2.5912127495 -0.37318283319
          2.6853787899 -4.4424648285 -0.25721037388 7.7755527496 -6.9322757721 -0.36437046528
          6.148100853 -6.5462417603 -0.64961260557 5.0871472359 -4.9235277176 0.35547155142
          0.01328240335 -0.48644819856 -0.16435356438 0 0 0
          3.8807799816 -3.2672483921 0.76537436247 0.69536179304 -0.34306630492 0.37936627865
          0.80470991135 -2.6693489552 -0.18401111662 0.24484783411 -0.43038892746 0.08250194788
          -0.084306843579 -0.53693795204 -0.059251576662 1.9430862665 -2.8332512379 0.24481391907
          6.1823263168 -6.6062822342 -0.32543092966 3.8428063393 -4.6381497383 0.30405393243
          2.6829829216 -4.4694342613 -1.6709329884e-06 7.781961441 -6.9530434608 7.8285675045e-06
          0.1476663202 -1.4539903402 -0.34687188268 0.38032501936 -1.3144966364 0.12656731904
          0 0 0 4.7428350449 -6.279074192 -0.57374620438
          1.2979563475 -1.3209780455 0.42539396882 2.884155035 -2.9539554119 0.6253554821
          0.79626619816 -2.6964509487 -4.1021771722e-06 6.1911606789 -6.6274323463 4.9194063649e-06
          -0.073641590774 -0.59137034416 -5.4265265135e-06 0.1022734344 -1.4638801813 -0.13229672611
          4.7630934715 -6.3391418457 -0.2878755331 6.4989728928 -5.2003321648 0.80754441023
          0 0 0 1.5288963318 -4.2268490791 -0.45345890522
          5.0533795357 -4.8435759544 0.70466887951 0.11133912206 -1.515363574 -6.7616842898e-06
          1.5098999739 -4.2863912582 -0.21548472345 4.7683243752 -6.3604640961 1.9394458377e-06
          0.28195029497 -0.28930696845 0.15554130077 2.6853802204 -4.4424591064 0.25720709562
          3.4358260632 -6.0748305321 -0.50034892559 7.7755541801 -6.93227005 0.3643862009
          0.39477607608 -2.732868433 -0.38475161791 1.9770114422 -2.7402436733 0.47968244553
          0 0 0 0.8047119379 -2.6693446636 0.18400296569
          3.443842411 -6.1354856491 -0.25166928768 -0.084304854274 -0.53693580627 0.059241071343
          0.41027233005 -2.7708907127 -0.16759052873 6.182328701 -6.6062760353 0.32544082403
          3.8300406933 -4.5606255531 0.60361027718 0.43821761012 -1.1938712597 0.22436226904
          8.8714141846 -8.6349382401 -0.66325980425 0 0 0
          1.4944016933 -4.3070015907 -4.5764713832e-06 7.1720118523 -8.3299503326 -0.60507142544
          8.9015865326 -8.6795940399 -0.33265501261 0 0 0
          0.061679452658 -0.70407420397 -0.11110117286 7.2002058029 -8.3777370453 -0.3021530211
          3.4431245327 -6.1571874619 -1.1796461195e-06 0.030597062781 -0.74482756853 -0.041276440024
          0.10227592289 -1.4638768435 0.13228356838 0.40126356483 -2.7988209724 -7.7010527093e-06
          4.7630953789 -6.3391356468 0.28787946701 5.621111393 -8.0769176483 -0.5432035327
          -0.0076012839563 -1.6446319818 -0.13023987412 8.9088363647 -8.6956806183 9.9246299214e-06
          0 0 0 -0.044261727482 -1.7012808323 -0.097149573267
          5.6412582397 -8.1262044907 -0.27162283659 7.2085771561 -8.3945989609 6.5679814725e-06
          0.021420041099 -0.75777333975 -4.1155594772e-06 2.6922650337 -4.3728756905 0.50844913721
          2.2335705757 -5.9005541801 -0.4166662693 7.7378206253 -6.8745441437 0.72449332476
          0 0 0 0.6743734479 -4.1864619255 -0.29235094786
          1.5099024773 -4.286386013 0.21547554433 0.8542701602 -2.5912036896 0.37317493558
          6.1481056213 -6.5462298393 0.64962267876 0.01328345295 -0.48644217849 0.16434314847
          0.69743138552 -4.2770543098 -0.15942728519 2.2336492538 -5.9710335732 -0.20765189826
          3.4438443184 -6.1354789734 0.2516669333 0.41027501225 -2.7708861828 0.16757526994
          5.6470685005 -8.143324852 3.1405213576e-06 -0.042976111174 -1.7112051249 -7.8679413491e-06
          4.1864070892 -7.8806738853 -0.47881039977 -0.21226786077 -2.9312603474 -0.29264941812
          0.14766834676 -1.4539819956 0.34685885906 8.9015884399 -8.6795873642 0.33267495036
          4.7428393364 -6.2790617943 0.57375025749 0 0 0
          2.229082346 -5.9906582832 -4.574356808e-06 0.69605845213 -4.2916064262 -8.1146317825e-06
          4.1972084045 -7.9303636551 -0.23869103193 7.2002081871 -8.3777303696 0.30216619372
          -0.21001149714 -2.9874372482 -0.12242504954 0.030597385019 -0.74482554197 0.041268527508
          1.5288997889 -4.226837635 0.4534496367 4.199660778 -7.9454813004 -4.1030529019e-07
          5.6412606239 -8.1261968613 0.27162915468 -0.044260520488 -1.7012776136 0.097133785486
          -0.19429603219 -2.9895396233 -1.223014624e-05 9.9269514084 -10.456002235 -0.62353104353
          0 0 0 9.9484109879 -10.495430946 -0.31219112873
          3.4358296394 -6.0748176575 0.50034666061 8.1349029541 -10.169465065 -0.57176482677
          0.3947789669 -2.7328577042 0.3847361505 0.93039464951 -5.778927803 -0.25909009576
          0.011389053427 -0.83356338739 -0.047068536282 0.6974337101 -4.277048111 0.15941093862
          2.2336513996 -5.9710268974 0.20764274895 0 0 0
          8.1555681229 -10.211580276 -0.28495499492 0.92981505394 -5.8730621338 -0.1468719542
          -0.010584458709 -0.86812853813 -0.020238524303 2.8377594948 -7.7390503883 -0.39925962687
          0.0077389203943 -4.4371414185 -0.30318710208 8.8714199066 -8.6349248886 0.66327995062
          0 0 0 7.1720175743 -8.3299369812 0.60508483648
          9.9550247192 -10.50945282 1.2209215129e-05 -0.040698409081 -4.4661855698 -0.11869739741
          2.8293571472 -7.7838869095 -0.20243929327 0.061676677316 -0.70407128334 0.11109378189
          6.4521112442 -9.9390058517 -0.5162243247 -0.040480323136 -1.8645660877 -0.086348079145
          0 0 0 4.1972107887 -7.9303565025 0.23869025707
          -0.21000799537 -2.9874331951 0.12240104377 8.1619682312 -10.225996017 8.431860806e-06
          0.94488042593 -5.8985366821 -8.2743463281e-06 6.4697027206 -9.9814100266 -0.25651264191
          -0.05981792137 -1.9136955738 -0.039123259485 -0.011765491217 -0.87671691179 -3.6779820221e-06
          5.6211166382 -8.0769033432 0.5432100296 -0.007603420876 -1.6446273327 0.13022603095
          2.8273024559 -7.794303894 -4.1321159188e-06 -0.0043906704523 -4.5059885979 -1.2795871953e-05
          2.233574152 -5.9005403519 0.41665709019 6.4743890762 -9.9954576492 4.5817314458e-06
          -0.065013051033 -1.9306162596 -7.7320328273e-06 0.67437678576 -4.1864490509 0.29233425856
          9.9484138489 -10.495423317 0.31221559644 4.8807373047 -9.7878141403 -0.46238458157
          0 0 0 -0.059919804335 -3.0783147812 -0.093701787293
          4.8925671577 -9.8251781464 -0.22873581946 8.1555709839 -10.211572647 0.28497192264
          -0.010584626347 -0.86812728643 0.020231531933 0.92981725931 -5.8730549812 0.14685548842
          -0.080159612 -3.1488234997 -0.059269938618 4.1864113808 -7.8806591034 0.47880977392
          1.3059287071 -7.6132993698 -0.34690150619 2.8293595314 -7.7838797569 0.20243108273
          -0.21226504445 -2.9312479496 0.29262515903 -0.040695529431 -4.4661798477 0.11867210269
          0.24581614137 -6.0492649078 -0.40207770467 1.2755229473 -7.6503472328 -0.16761471331
          4.894618988 -9.8374595642 6.5716108111e-07 6.4697055817 -9.9814023972 0.25652188063
          -0.059818286449 -1.9136931896 0.039108075202 0.20525161922 -6.0270972252 -0.15293195844
          -0.086950674653 -3.1576681137 -1.1205395822e-05 10.936016083 -12.329589844 -0.60246783495
          0 0 0 -0.021952191368 -0.91051286459 -0.0059253270738
          1.2726310492 -7.661878109 -7.974815162e-06 3.3975093365 -9.7210617065 -0.42197167873
          9.0512609482 -12.052482605 -0.54861748219 9.9269571304 -10.455986977 0.62355571985
          0 0 0 0 0 0
          0.23586548865 -6.0786280632 -1.3026568922e-05 -0.076729111373 -4.4820723534 -0.1231014654
          10.949335098 -12.370038986 -0.30118688941 3.3980998993 -9.7438192368 -0.2086776644
          9.0652580261 -12.094763756 -0.27281033993 8.1349096298 -10.16945076 0.57178193331
          -0.026955196634 -0.9388859868 -0.0014675961575 0.93039816618 -5.7789134979 0.25907379389
          0.011385483667 -0.83356201649 0.047061484307 -0.087511375546 -4.5554413795 -0.071139059961
          4.8925700188 -9.8251695633 0.22873719037 -0.080159984529 -3.1488199234 0.059247404337
          7.2305512428 -11.838657379 -0.48995679617 2.8377635479 -7.7390356064 0.39925155044
          0.0077424985357 -4.437128067 0.30316185951 0 0 0
          -0.063739381731 -1.9643434286 -0.013175381348 10.954759598 -12.384011269 1.470857751e-05
          -0.028503935784 -0.94702452421 -3.1427446174e-06 3.4007787704 -9.754609108 -3.3659932797e-06
          7.2440137863 -11.87813282 -0.24232551455 6.4521174431 -9.9389896393 0.51623374224
          9.0699090958 -12.108400345 1.0511007531e-05 -0.040484301746 -1.8645628691 0.086333565414
          -0.10315354168 -4.5656199455 -1.3899306396e-05 -0.071251086891 -2.0080807209 -0.0064075537957
          1.2755259275 -7.6503396034 0.16759884357 0.20525486767 -6.0270900726 0.15290640295
          0.57453244925 -7.8282561302 -0.46387034655 7.2455067635 -11.888522148 6.2367103055e-06
          -0.073620200157 -2.02166152 -6.8209096753e-06 0.59521836042 -7.8098912239 -0.1861961931
          5.5110397339 -11.716375351 -0.43376615644 0 0 0
          -0.11686514318 -3.1847958565 -0.021437155083 10.949337959 -12.370031357 0.30121636391
          -0.026955772191 -0.93888545036 0.0014614855172 3.3981025219 -9.7438106537 0.20867100358
          5.5212950706 -11.74844265 -0.21171241999 4.8807425499 -9.7877979279 0.46238613129
          9.0652618408 -12.094755173 0.27283143997 1.9643019438 -9.6702394485 -0.43861591816
          -0.059506092221 -6.0655055046 -0.12319876254 -0.05992328003 -3.0783097744 0.093681156635
          -0.12349462509 -3.2391374111 -0.0078757833689 -0.087511137128 -4.555437088 0.071111552417
          1.9309874773 -9.671587944 -0.20110732317 -0.097640126944 -6.1470580101 -0.11329581589
          0.59185618162 -7.8308262825 -1.2774300558e-05 1.3059334755 -7.6132845879 0.34688600898
          7.2440171242 -11.878124237 0.24233806133 0.24582031369 -6.049249649 0.4020524025
          5.5166525841 -11.758263588 1.9296351184e-06 -0.071252398193 -2.0080795288 0.006393999327
          -0.12715627253 -3.2585625648 -1.0470614143e-05 1.89577806 -9.6651363373 -7.5200869105e-06
          -0.084088496864 -6.1559319496 -1.5744120901e-05 -0.17032046616 -4.5860466957 -0.021264713258
          3.930150032 -11.669951439 -0.40543994308 10.936023712 -12.329573631 0.60249745846
          0 0 0 0.59522169828 -7.8098835945 0.18617087603
          -0.021956067532 -0.91051250696 0.0059188148007 -0.182519719 -4.6522274017 -0.011949369684
          3.3975143433 -9.7210454941 0.42196518183 9.0512685776 -12.052466393 0.54863876104
          3.9378986359 -11.691877365 -0.19825620949 11.928240776 -14.266234398 -0.59631597996
          0 0 0 -0.076731227338 -4.4820652008 0.12307601422
          11.934811592 -14.311742783 -0.29752054811 -0.053927596658 -0.94098258018 0.032314345241
          9.9436988831 -13.988443375 -0.5339974761 5.5212984085 -11.748434067 0.2117163837
          0 0 0 -0.12349614501 -3.2391359806 0.0078552952036
          9.9514942169 -14.035158157 -0.26569861174 -0.046377811581 -0.96608555317 0.013723201118
          1.9309910536 -9.6715803146 0.201092273 -0.09763891995 -6.1470527649 0.1132645309
          7.2305583954 -11.838641167 0.48996955156 -0.18486122787 -4.6736526489 -1.3586186469e-05
          3.9314119816 -11.702793121 -2.3530392355e-06 -0.063744850457 -1.9643425941 0.013162307441
          0.8775986433 -9.7193727493 -0.34183585644 -0.1106608361 -2.0118951797 0.038257777691
          7.9740171432 -13.76614666 -0.4678337276 -0.21719570458 -8.1156291962 -0.44070872664
          11.938794136 -14.326813698 1.7458680304e-05 0 0 0
          0.9081055522 -9.757566452 -0.19535642862 9.9545679092 -14.049881935 1.2802371202e-05
          -0.046300925314 -0.97301870584 -2.5876424843e-06 7.9851875305 -13.808412552 -0.22990691662
          -0.10662384331 -2.0486021042 0.020814809948 -0.19170324504 -8.1180152893 -0.19624227285
          0.57453727722 -7.8282399178 0.46384471655 0.92039501667 -9.7525434494 -1.2039613466e-05
          -0.25841343403 -6.2233986855 -0.050759524107 -0.1825209409 -4.6522250175 0.011922743171
          2.5497853756 -11.634544373 -0.38955950737 7.9876785278 -13.817136765 8.0686477304e-06
          5.5110464096 -11.716358185 0.43377032876 3.9379017353 -11.691868782 0.19825156033
          -0.16893883049 -8.0961856842 -1.7809141355e-05 -0.10546412319 -2.0611817837 -5.8323344092e-06
          -0.11687061936 -3.184794426 0.021417642012 11.934815407 -14.3117342 0.29755550623
          6.0920701027 -13.65055275 -0.39551913738 -0.26864603162 -6.2955169678 -0.020063618198
          -0.17199829221 -3.2406928539 0.04307923466 2.552544117 -11.651901245 -0.19561994076
          1.964307785 -9.6702232361 0.43860080838 -0.059506531805 -6.0654969215 0.12317038327
          0 0 0 -0.17073644698 -3.286055088 0.023100698367
          9.9514980316 -14.035148621 0.26572427154 -0.046378590167 -0.96608555317 -0.01372830011
          6.0798768997 -13.67576313 -0.19515380263 -0.27626380324 -6.314848423 -1.6320584109e-05
          2.5413410664 -11.656690598 -6.6934035203e-06 0.90810823441 -9.7575588226 0.19533218443
          6.053217411 -13.673823357 3.3694536796e-06 -0.1707905978 -3.3017096519 -9.194557606e-06
          7.9851913452 -13.808403015 0.22992315888 -0.10662551224 -2.0486021042 -0.02082644403
          -0.19170036912 -8.1180076599 0.19620670378 -0.17032510042 -4.5860443115 0.02123966068
          3.9301557541 -11.669934273 0.40543541312 4.423386097 -13.623205185 -0.35931962729
          11.928248405 -14.266216278 0.59635108709 0 0 0
          -0.24248789251 -4.6567893028 0.046649806201 -0.053931444883 -0.94098311663 -0.032320018858
          9.9437065125 -13.988424301 0.53402328491 -0.26864644885 -6.2955136299 0.020031660795
          2.5525472164 -11.651891708 0.19560651481 4.4140982628 -13.638738632 -0.17254257202
          0.091050080955 -10.018724442 -0.41742625833 -0.2419552058 -4.7081279755 0.026187995449
          -0.17073848844 -3.286055088 -0.023118872195 6.0798807144 -13.675754547 0.19516065717
          0.073710784316 -9.9961986542 -0.17775987089 1.1381123066 -11.555515289 -0.34267023206
          -0.32358521223 -8.0339241028 0.0040372055955 12.924407959 -16.29161644 -0.59891182184
          0 0 0 10.829759598 -16.008363724 -0.52891552448
          0.87760353088 -9.7193555832 0.34181112051 -0.11066651344 -2.011895895 -0.038269288838
          7.9740247726 -13.76612854 0.46785023808 -0.35033637285 -8.1337070465 -0.088348455727
          1.1443613768 -11.58404541 -0.16850720346 -0.21719115973 -8.11561203 0.44067287445
          12.926020622 -16.342561722 -0.29857352376 0 0 0
          -0.2439481616 -4.7266068459 -1.2336889995e-05 4.3857469559 -13.644463539 -1.2043008155e-06
          -0.087155230343 -0.93957000971 0.066809915006 10.832392693 -16.060337067 -0.26368835568
          -0.068105258048 -0.96305346489 0.027838109061 0.11739172786 -10.025647163 -1.7070786271e-05
          8.7258415222 -15.76468277 -0.45463198423 -0.29896727204 -8.1541252136 -1.8510530936e-05
          1.1594594717 -11.604523659 -1.1309606634e-05 12.928272247 -16.359199524 2.0498047888e-05
          0 0 0 -0.15373891592 -2.0070655346 0.085907705128
          8.7324352264 -15.815485954 -0.22523184121 10.834225655 -16.076854706 1.5302972315e-05
          -0.25841623545 -6.2233939171 0.050729341805 2.5497908592 -11.634526253 0.38954594731
          -0.06703709811 -0.96937102079 -2.0535012482e-06 -0.14121334255 -2.040820837 0.044250704348
          6.0920777321 -13.650533676 0.39552634954 -0.17200443149 -3.2406938076 -0.043096721172
          -0.31125983596 -6.2679862976 0.060205128044 2.9982066154 -13.640533447 -0.35967591405
          -0.24195706844 -4.7081270218 -0.026212284341 4.4141016006 -13.638729095 0.17254024744
          -0.31506079435 -6.32924366 0.025163160637 3.0051772594 -13.635984421 -0.1717287451
          0.073713131249 -9.9961900711 0.17772580683 8.7362108231 -15.830341339 1.0032172213e-05
          -0.13662493229 -2.0518431664 -4.7788739721e-06 6.6048130989 -15.599747658 -0.38115051389
          -0.35033613443 -8.1337022781 0.088311776519 1.1443638802 -11.584036827 0.1684846431
          12.926023483 -16.342552185 0.29861453176 0 0 0
          -0.21439899504 -3.2333042622 0.096287108958 6.5963330269 -15.631075859 -0.1900408417
          10.832396507 -16.06032753 0.26371899247 -0.20727863908 -3.2728972435 0.050114363432
          -0.31312540174 -6.3508176804 -1.5168017853e-05 3.0054292679 -13.635901451 -5.7068264141e-06
          -0.068106077611 -0.96305388212 -0.027842208743 8.7324399948 -15.815476418 0.22525201738
          6.5785732269 -15.62920475 4.9599234444e-06 -0.20498980582 -3.2861981392 -7.7071372289e-06
          4.4233922958 -13.623187065 0.35931760073 0.37239381671 -11.840010643 -0.4661244154
          -0.14121507108 -2.0408215523 -0.044260311872 -0.24249348044 -4.6567897797 -0.04667295143
          -0.64718580246 -10.243227959 -0.36924940348 0.39393004775 -11.816602707 -0.16964024305
          0.091054752469 -10.018706322 0.41739204526 -0.60007029772 -10.21989727 -0.21103405952
          -0.31506213546 -6.3292422295 -0.025192994624 3.0051803589 -13.635974884 0.17171740532
          1.1381171942 -11.555497169 0.34264782071 -0.32358714938 -8.0339164734 -0.0040710545145
          -0.27082550526 -4.64021492 0.10515289009 4.825404644 -15.595459938 -0.32519924641
          12.924415588 -16.291595459 0.59895288944 0 0 0
          10.829768181 -16.008342743 0.52894634008 -0.26650512218 -4.6832437515 0.054418541491
          0.39198261499 -11.845338821 -1.6005191355e-05 -0.40556719899 -8.0978918076 0.034601319581
          1.6963291168 -13.661374092 -0.40135848522 4.7795376778 -15.587949753 -0.16271997988
          -0.087158717215 -0.9395711422 -0.066814661026 -0.21374566853 -9.9523391724 -1.9897450329e-05
          6.5963377953 -15.631066322 0.19005088508 -0.20728076994 -3.2728979588 -0.050129648298
          1.6410773993 -13.620691299 -0.17987015843 -0.40084990859 -8.1566801071 0.018268352374
          8.7258491516 -15.764662743 0.45465245843 -0.26524460316 -4.6984910965 -1.050728406e-05
          4.699429512 -15.566924095 8.7591928377e-08 -0.15374423563 -2.0070674419 -0.085917383432
          1.5685254335 -13.574858665 -1.0153747098e-05 13.929484367 -18.430727005 -0.60384708643
          0 0 0 -0.37232264876 -8.1517047882 -1.7699918317e-05
          13.928486824 -18.484601974 -0.30129054189 0 0 0
          0.39393210411 -11.816594124 0.16960845888 11.720005035 -18.143533707 -0.5309368372
          -0.31126436591 -6.2679858208 -0.060233280063 2.9982123375 -13.640515327 0.35966479778
          -0.1182840243 -0.90694081783 0.10168195516 -0.60007059574 -10.219889641 0.21099257469
          11.719288826 -18.198377609 -0.26533079147 -0.088281102479 -0.9305139184 0.042427543551
          6.604821682 -15.599728584 0.3811610043 13.929073334 -18.502336502 2.3853262974e-05
          -0.26650720835 -4.6832442284 -0.054439306259 9.4917354584 -17.886016846 -0.45620089769
          -0.19113013148 -1.9479300976 0.13319210708 4.7795419693 -15.58794117 0.162720263
          0 0 0 3.4319617748 -15.601549149 -0.35218700767
          -0.32024392486 -6.2401638031 0.1121326834 -0.2144048959 -3.2333066463 -0.096302054822
          -0.17110726237 -1.9813199043 0.068168066442 9.4925031662 -17.944194794 -0.22821573913
          11.720020294 -18.216653824 1.8000617274e-05 1.6410806179 -13.620681763 0.17984989285
          -0.31637069583 -6.2839064598 0.059225592762 3.4279639721 -15.585432053 -0.17828631401
          -0.40085047483 -8.1566781998 -0.018303064629 -0.086308263242 -0.93622112274 -1.5632219856e-06
          -0.44796705246 -12.131081581 -0.43216580153 9.4942684174 -17.96455574 1.2090663404e-05
          0.37239843607 -11.83999157 0.46609246731 -0.16392381489 -1.9913820028 -3.7321187847e-06
          -0.31498032808 -6.2980971336 -1.306485774e-05 -0.39484167099 -12.140144348 -0.18448933959
          3.4161884785 -15.575913429 -4.5745186981e-06 -0.64718431234 -10.243211746 0.36920979619
          13.928489685 -18.48459053 0.30133825541 7.2092328072 -17.655366898 -0.37598490715
          -0.4116885066 -10.042912483 0.054449889809 0 0 0
          -0.24386952817 -3.1534569263 0.14858481288 0.65014976263 -13.745207787 -0.34344539046
          -0.23375354707 -3.1913816929 0.076580487192 7.2246603966 -17.711484909 -0.18912945688
          11.719293594 -18.198366165 0.26536682248 -0.41223418713 -10.124199867 -0.02061136812
          0.68836539984 -13.754615784 -0.19923891127 -0.088281869888 -0.93051451445 -0.042430702597
          -0.2708311677 -4.6402177811 -0.10517287999 4.8254117966 -15.595441818 0.32519993186
          -0.37117868662 -12.100363731 -2.0294646674e-05 -0.4055698216 -8.0978899002 -0.034634068608
          1.6963350773 -13.661355972 0.40133830905 7.2399878502 -17.730554581 6.3852344283e-06
          9.4925069809 -17.94418335 0.22824002802 -0.45435872674 -10.093863487 -1.9767443519e-05
          -0.1711088419 -1.981320858 -0.06817561388 -0.22973158956 -3.2032835484 -6.0938696151e-06
          -0.31637236476 -6.2839069366 -0.059251330793 3.4279675484 -15.58542347 0.1782772243
          0.69417119026 -13.721849442 -1.4352922335e-05 2.1995048523 -15.560998917 -0.3602360785
          -0.34145584702 -8.0180845261 0.12606357038 2.195120573 -15.557190895 -0.18224228919
          -0.34240090847 -8.0654907227 0.061109006405 13.929491997 -18.430704117 0.60389488935
          0 0 0 -0.39484182 -12.140133858 0.18444864452
          -0.28356635571 -4.5431413651 0.15721005201 5.1473493576 -17.519161224 -0.30168178678
          -0.27902242541 -4.5808429718 0.081015028059 11.720014572 -18.143510818 0.53097301722
          -0.11828699708 -0.90694224834 -0.1016857475 5.1011662483 -17.508651733 -0.17617213726
          7.2246651649 -17.711473465 0.18914243579 -0.41223412752 -10.124195099 0.020572703332
          -0.23375551403 -3.1913831234 -0.076592639089 0.68836700916 -13.754607201 0.19921006262
          2.1742639542 -15.54462719 -8.8897422756e-06 -0.34834349155 -8.0773468018 -1.5312729374e-05
          9.4917440414 -17.885993958 0.45622545481 -0.19113470614 -1.947932601 -0.13319987059
          3.4319677353 -15.601531029 0.35217818618 -0.27884826064 -4.591463089 -8.3537252067e-06
          -0.32024869323 -6.2401666641 -0.11215730011 4.9889554977 -17.472587585 1.2683511841e-06
          14.939335823 -20.694734573 -0.60658067465 0 0 0
          -0.44796341658 -12.131063461 0.43212467432 2.1951231956 -15.557182312 0.1822245121
          0 0 0 12.61419487 -20.406917572 -0.53482204676
          -0.51658177376 -11.92580986 0.078507468104 -0.34240195155 -8.065489769 -0.061139125377
          -0.14750525355 -0.84005224705 0.14001399279 -0.12470677495 -13.995838165 -0.37140646577
          14.93794632 -20.748434067 -0.30304026604 7.2092413902 -17.655345917 0.37599852681
          12.612169266 -20.461263657 -0.26793652773 -0.10672235489 -0.86344522238 0.058896623552
          -0.41169008613 -10.042908669 -0.054485846311 -0.53624624014 -12.049899101 -0.065739355981
          -0.24387469888 -3.1534602642 -0.14859685302 3.8698961735 -17.479053497 -0.34082558751
          -0.27902436256 -4.5808444023 -0.081031598151 0.65015405416 -13.745189667 0.34341624379
          -0.30770093203 -6.1147918701 0.1629511565 5.1011710167 -17.508642197 0.17617475986
          -0.12841914594 -14.00169754 -0.1427257508 -0.30549925566 -6.151116848 0.085587911308
          3.8943583965 -17.474309921 -0.15105672181 10.277331352 -20.142707825 -0.46446371078
          14.937402725 -20.766300201 2.752538785e-05 -0.22281309962 -1.8314598799 0.18444308639
          0 0 0 10.275058746 -20.20215416 -0.23258826137
          -0.1957179755 -1.8646141291 0.095092482865 12.611818314 -20.480072021 2.0874296752e-05
          0.91470277309 -15.489172935 -0.33013898134 -0.45855301619 -12.078466415 -2.06064542e-05
          -0.11284598708 -13.999551773 -1.8190423361e-05 -0.36207923293 -9.9166193008 0.12913177907
          -0.10472353548 -0.8677431345 -1.137148729e-06 0.90626907349 -15.505267143 -0.14495623112
          3.9101185799 -17.478509903 -3.8196471905e-06 -0.36803245544 -9.9763555527 0.069275699556
          -0.30464786291 -6.1614580154 -1.0370192285e-05 2.1995100975 -15.56098175 0.36021831632
          10.275891304 -20.222902298 1.4171501789e-05 -0.34145930409 -8.0180864334 -0.1260920912
          -0.18553167582 -1.8730012178 -2.7591206617e-06 7.8974666595 -19.885637283 -0.37684002519
          14.937949181 -20.748420715 0.30309531093 0.89309835434 -15.523773193 -1.3039368241e-05
          -0.26852244139 -3.0043053627 0.2032957226 -0.28357133269 -4.5431456566 -0.15722624958
          -0.35826212168 -10.003259659 -1.7286871298e-05 5.147356987 -17.519142151 0.30168515444
          0 0 0 7.9113192558 -19.958301544 -0.19179326296
          -0.25661879778 -3.0420157909 0.10475888103 12.61217308 -20.461250305 0.26797828078
          -0.53624671698 -12.049894333 0.065698310733 -0.12841974199 -14.001688004 0.14268887043
          -0.10672297329 -0.86344593763 -0.058898951858 3.8943619728 -17.474302292 0.15104942024
          -0.30550101399 -6.1511182785 -0.085608437657 10.275063515 -20.202140808 0.23261669278
          7.9300918579 -19.988983154 7.6171850196e-06 2.652944088 -17.469694138 -0.33851402998
          -0.29788759351 -7.8542208672 0.16682198644 -0.25208756328 -3.0524833202 -4.5177653192e-06
          -0.1957192868 -1.8646153212 -0.095098115504 -0.2971060276 -7.8889813423 0.091178461909
          0.90627074242 -15.50525856 0.14493022859 2.6335506439 -17.441871643 -0.14701855183
          -0.36803257465 -9.976354599 -0.069309473038 5.5134129524 -19.564731598 -0.26345807314