<?xml version="1.0"?>
<VTKFile type="UnstructuredGrid" version="0.1" byte_order="LittleEndian" header_type="UInt32" compressor="vtkZLibDataCompressor">
  <UnstructuredGrid>
    <Piece NumberOfPoints="6405" NumberOfCells="4800">
      <PointData>
        <DataArray type="Float32" Name="DISPLACEMENT" NumberOfComponents="3" ComponentName0="X-DISPLACEMENT" ComponentName1="Y-DISPLACEMENT" ComponentName2="Z-DISPLACEMENT" format="ascii" RangeMin="0" RangeMax="261.26312463">
          0 0 0 0 0 0
          2.1240782738 -1.3164114952 -0.979988873 0 0 0
          1.3516713381 -0.78877586126 -0.75182467699 0 0 0
          1.9428505898 -1.4541778564 -0.38908565044 1.1767885685 -0.90161806345 -0.30622214079
          0 0 0 3.8018045425 -2.4350907803 -0.998483181
          0 0 0 3.7515993118 -2.5960843563 -0.5152528882
          2.7130391598 -2.0138995647 -0.82606589794 0 0 0
          0 0 0 1.950466156 -1.5001542568 6.7702632123e-07
          0.9770783186 -0.55171024799 -0.56842523813 1.1725566387 -0.92340910435 2.8413100495e-07
          2.6591613293 -2.1423535347 -0.42182275653 0.8428992033 -0.65093046427 -0.23154206574
          3.7103734016 -2.6412723064 1.4702997078e-06 1.9356658459 -1.6704953909 -0.64320850372
          0 0 0 2.6239876747 -2.1847159863 7.4198237598e-07
          1.8791805506 -1.7907532454 -0.32976865768 0 0 0
          5.31711483 -3.8713700771 -0.9288033247 0 0 0
          0.83871716261 -0.66912466288 -1.655247388e-07 0 0 0
          0 0 0 1.9428504705 -1.4541771412 0.38908699155
          3.9868142605 -3.4659519196 -0.78239953518 5.3374209404 -3.9875547886 -0.47356548905
          0.62275964022 -0.3747741282 -0.4013620019 1.1767888069 -0.90161734819 0.30622273684
          4.0036606789 -3.5763337612 -0.39906960726 0.51987910271 -0.47517263889 -0.17070189118
          1.8478929996 -1.8254400492 -6.5986426989e-08 3.7515993118 -2.5960829258 0.51525586843
          0 0 0 0 0 0
          1.319059968 -1.4599635601 -0.45349991322 2.9388887882 -3.1325244904 -0.63413894176
          5.3245987892 -4.0295071602 2.437514695e-06 2.6591618061 -2.1423521042 0.42182430625
          2.9324717522 -3.2405908108 -0.32287597656 0.84289944172 -0.6509296298 0.23154179752
          3.9951763153 -3.6129631996 1.3718843093e-06 1.2700368166 -1.5814201832 -0.22930286825
          0.51083558798 -0.49037590623 -7.7158256317e-07 0 0 0
          6.7087235451 -5.5027718544 -0.82149666548 0 0 0
          5.188398838 -5.1374783516 -0.71710735559 1.8791812658 -1.7907515764 0.32976853848
          6.7504477501 -5.5844602585 -0.41599395871 2.1240785122 -1.3164103031 0.97999024391
          0 0 0 0 0 0
          1.24414289 -1.6132103205 -1.046762236e-06 2.9215700626 -3.2726514339 2.3383778114e-07
          0.34426170588 -0.37151288986 -0.22545987368 5.2245135307 -5.2188720703 -0.36173012853
          1.3516720533 -0.78877437115 0.75182539225 1.9916163683 -2.8826756477 -0.4646820426
          0 0 0 5.3374214172 -3.9875526428 0.47357040644
          0.33638137579 -0.50011235476 -0.10755223036 1.9581859112 -2.9914441109 -0.23926201463
          4.0036616325 -3.5763316154 0.39907240868 0.51987993717 -0.47517171502 0.17070044577
          3.914706707 -4.8438210487 -0.61196726561 0.52265024185 -1.3622883558 -0.20964892209
          6.7515153885 -5.6132445335 3.5423299778e-06 3.8018054962 -2.4350879192 0.99848634005
          0 0 0 0 0 0
          3.9254198074 -4.9237565994 -0.30778774619 2.7130405903 -2.0138967037 0.82606756687
          5.2301983833 -5.2471461296 2.1738007945e-06 0.48229879141 -1.5003489256 -0.12207201123
          0.97707867622 -0.55170845985 0.56842511892 0.33982804418 -0.53893071413 -1.8474730723e-06
          1.9447411299 -3.0198998451 -1.0134320974e-06 2.9324727058 -3.2405884266 0.3228764534
          1.2700376511 -1.5814182758 0.22930079699 3.9263324738 -4.9499664307 7.4947007533e-07
          1.9356669188 -1.6704918146 0.64320850372 0.46760910749 -1.5315047503 -2.2259177967e-06
          2.7292921543 -4.6463103294 -0.5074005127 6.7504482269 -5.5844573975 0.41600111127
          5.3171167374 -3.8713657856 0.92880839109 0 0 0
          7.9631352425 -7.2722063065 -0.73013347387 0 0 0
          0 0 0 0.78502768278 -2.7261719704 -0.30023556948
          2.7091836929 -4.7154517174 -0.25661116838 8.0036878586 -7.3272480965 -0.3673658371
          6.3004837036 -6.9429311752 -0.6593349576 5.2245144844 -5.2188692093 0.36173453927
          -0.0033466357272 -0.54999095201 -0.15973244607 0 0 0
          3.9868164062 -3.4659473896 0.78240245581 0.62276053429 -0.37477204204 0.4013607204
          0.73541682959 -2.8362240791 -0.16164179146 0.33638232946 -0.50011122227 0.10754862428
          -0.089141249657 -0.62464570999 -0.057098638266 1.9581871033 -2.9914417267 0.23926003277
          6.3365778923 -7.0003061295 -0.33018612862 3.9254209995 -4.9237537384 0.30778929591
          2.7054033279 -4.740000248 -7.6622228562e-07 8.0101747513 -7.3473153114 4.7738944886e-06
          0.14884488285 -1.652361989 -0.3044064045 0.48229977489 -1.5003467798 0.12206760049
          0 0 0 4.8414940834 -6.6818804741 -0.58900046349
          1.3190611601 -1.459959507 0.45349785686 2.9388904572 -3.132519722 0.63413953781
          0.73040521145 -2.8668069839 -2.3239927032e-06 6.3459529877 -7.0207586288 3.1327308534e-06
          -0.090396128595 -0.66664195061 -3.730450544e-06 0.061982158571 -1.6722829342 -0.11243934184
          4.859711647 -6.737683773 -0.29491427541 6.7087254524 -5.5027661324 0.82150393724
          0 0 0 1.3646382093 -4.4851460457 -0.45421943069
          5.1884012222 -5.1374726295 0.71711188555 0.078435860574 -1.7282581329 -4.2989672693e-06
          1.3235967159 -4.5341792107 -0.21502068639 4.8647050858 -6.7579059601 1.4524830476e-06
          0.34426257014 -0.37150999904 0.2254562825 2.7091851234 -4.7154488564 0.25660967827
          3.4721159935 -6.5042147636 -0.52740389109 8.0036888123 -7.3272447586 0.36737543344
          0.39073830843 -2.9894678593 -0.44959586859 1.9916180372 -2.8826706409 0.46468019485
          0 0 0 0.7354183197 -2.8362216949 0.16163721681
          3.4747059345 -6.553753376 -0.26509085298 -0.089139841497 -0.62464427948 0.057091291994
          0.35986474156 -2.9767701626 -0.17635670304 6.3365793228 -7.0003027916 0.33019241691
          3.9147090912 -4.8438153267 0.61196893454 0.52265161276 -1.3622839451 0.20964458585
          9.0970830917 -9.1166229248 -0.66270822287 0 0 0
          1.3133062124 -4.5551147461 -2.373478992e-06 7.3318185806 -8.814081192 -0.61208742857
          9.1294298172 -9.1561861038 -0.33269619942 0 0 0
          0.087013430893 -0.78816866875 -0.12288088351 7.3618917465 -8.8568439484 -0.30559024215
          3.4757082462 -6.5747694969 -3.0670437923e-07 0.048062521964 -0.82996040583 -0.043925326318
          0.061983890831 -1.6722806692 0.11243103445 0.36264738441 -3.0186443329 -4.5346723709e-06
          4.8597130775 -6.7376804352 0.29491719604 5.7242159843 -8.5685052872 -0.55868500471
          0.05503315106 -1.8150939941 -0.15985991061 9.1369867325 -9.1708307266 6.1177074713e-06
          0 0 0 0.027040798217 -1.8669997454 -0.12755450606
          5.7458696365 -8.6117115021 -0.27956420183 7.3707017899 -8.8722915649 4.2245692384e-06
          0.04122723639 -0.84357464314 -2.5327728963e-06 2.7292943001 -4.6463046074 0.50739914179
          2.1674234867 -6.3539733887 -0.49275487661 7.9631381035 -7.2722001076 0.73014318943
          0 0 0 0.74642318487 -4.5746068954 -0.44022083282
          1.3235988617 -4.5341763496 0.21501600742 0.78502988815 -2.7261669636 0.30023124814
          6.3004865646 -6.9429244995 0.6593413949 -0.0033451339696 -0.54998701811 0.1597250998
          0.77759981155 -4.6126947403 -0.20122642815 2.1523551941 -6.4003667831 -0.23599517345
          3.474707365 -6.5537500381 0.26509025693 0.35986694694 -2.9767677784 0.17634791136
          5.7519445419 -8.6273603439 2.3012137262e-06 0.054447516799 -1.8821582794 -4.6657564781e-06
          4.233186245 -8.3808116913 -0.50712043047 -0.090383335948 -3.2495772839 -0.40994855762
          0.1488469243 -1.652356863 0.30439838767 9.1294307709 -9.1561822891 0.33270847797
          4.8414969444 -6.6818737984 0.58900350332 0 0 0
          2.1313328743 -6.4130449295 -2.1758542061e-06 0.76724129915 -4.6311435699 -4.5248280003e-06
          4.2465815544 -8.4246377945 -0.25436878204 7.3618936539 -8.8568401337 0.30559873581
          -0.06406737864 -3.2622051239 -0.18551489711 0.048062819988 -0.82995909452 0.043920427561
          1.364641428 -4.4851398468 0.45421501994 4.2475838661 -8.440486908 3.1911264387e-07
          5.745871067 -8.6117076874 0.27956882119 0.02704173699 -1.866997838 0.12754544616
          0.16215187311 -3.1815018654 -6.0906381805e-06 10.145749092 -11.00177002 -0.62020504475
          0 0 0 10.16857338 -11.035798073 -0.31073635817
          3.4721186161 -6.5042071342 0.52740341425 8.2985868454 -10.716997147 -0.57601743937
          0.39074096084 -2.9894618988 0.44958719611 1.0882281065 -6.2884988785 -0.32240411639
          0.038832928985 -0.89826005697 -0.061045214534 0.77760201693 -4.6126914024 0.20121741295
          2.1523575783 -6.4003634453 0.23599077761 0 0 0
          8.3208065033 -10.754018784 -0.2870669961 1.1098408699 -6.3728346825 -0.18758575618
          0.01475584507 -0.93383151293 -0.028651362285 2.8793234825 -8.2181119919 -0.44261321425
          0.16073839366 -4.8577566147 -0.40308609605 9.0970869064 -9.1166152954 0.66272062063
          0 0 0 7.3318223953 -8.8140735626 0.61209607124
          10.175738335 -11.048230171 7.5649272731e-06 0.15468032658 -4.8880653381 -0.16957463324
          2.8836038113 -8.2681093216 -0.22469852865 0.08701197803 -0.78816699982 0.12287649512
          6.5647068024 -10.487547874 -0.52693265676 0.019375508651 -2.0030622482 -0.11301988363
          0 0 0 4.2465834618 -8.4246339798 0.25436943769
          -0.064065128565 -3.2622029781 0.18550169468 8.3276386261 -10.766787529 5.4345841818e-06
          1.1184031963 -6.3819732666 -4.2299761844e-06 6.5845274925 -10.525372505 -0.26217132807
          0.0032430060674 -2.0526144505 -0.056280896068 0.016058664769 -0.94319474697 -2.1131627364e-06
          5.724219799 -8.5684976578 0.55868977308 0.055032227188 -1.8150914907 0.15985192358
          2.8820288181 -8.2800521851 -1.7631797391e-06 0.18187607825 -4.89590168 -7.2180869211e-06
          2.167427063 -6.3539657593 0.49275031686 6.5893378258 -10.53809166 3.2739981179e-06
          0.012283864431 -2.0527677536 -4.2695801312e-06 0.7464261651 -4.5746002197 0.4402115345
          10.168575287 -11.035793304 0.31075152755 4.9584932327 -10.330764771 -0.47866547108
          0 0 0 0.034838490188 -3.3180520535 -0.11412095279
          4.9741835594 -10.365267754 -0.23666763306 8.3208084106 -10.754014015 0.28707790375
          0.014755805954 -0.93383079767 0.028647392988 1.1098425388 -6.3728308678 0.18757711351
          0.024490328506 -3.3968894482 -0.084606379271 4.2331895828 -8.3808031082 0.50712108612
          1.3874281645 -8.0758981705 -0.33275717497 2.8836054802 -8.2681055069 0.22469496727
          -0.090381890535 -3.2495706081 0.4099355042 0.15468212962 -4.8880624771 0.16956023872
          0.4543659091 -6.6106119156 -0.42367318273 1.3894630671 -8.141907692 -0.18025812507
          4.9764027596 -10.375185966 1.0618877013e-06 6.5845293999 -10.525367737 0.26217791438
          0.0032428684644 -2.0526130199 0.056272484362 0.40406018496 -6.5946359634 -0.17363791168
          -0.001967505319 -3.3927817345 -6.1979362727e-06 11.148273468 -12.921931267 -0.59926444292
          0 0 0 -0.0047211241908 -0.95663976669 -0.013284773566
          1.414239645 -8.1629533768 -4.0774061745e-06 3.4847681522 -10.252333641 -0.4268579483
          9.2189826965 -12.644948006 -0.55124461651 10.14575386 -11.001761436 0.62022036314
          0 0 0 0 0 0
          0.45616769791 -6.6406145096 -7.1944150477e-06 0.069718696177 -4.8394117355 -0.12993404269
          11.16201973 -12.957976341 -0.29963871837 3.4899952412 -10.272125244 -0.21376590431
          9.2338790894 -12.683189392 -0.27402016521 8.2985906601 -10.716988564 0.57602840662
          -0.010707261972 -0.98872065544 -0.0052968580276 1.0882309675 -6.2884907722 0.32239505649
          0.038831036538 -0.89825928211 0.061041265726 0.061978675425 -4.9328131676 -0.082141987979
          4.9741854668 -10.365262985 0.23666977882 0.024490201846 -3.3968875408 0.084594108164
          7.3540987968 -12.43033886 -0.49771910906 2.8793268204 -8.2181024551 0.44260951877
          0.16074088216 -4.8577485085 0.40307158232 0 0 0
          -0.022477574646 -2.0751338005 -0.020051861182 11.167921066 -12.970558167 9.1201718533e-06
          -0.010669330135 -0.99582213163 -1.7155057321e-06 3.4946491718 -10.278648376 -1.2609133364e-06
          7.3687858582 -12.465504646 -0.24613617361 6.5647110939 -10.487538338 0.52693933249
          9.2390165329 -12.695555687 6.7577975642e-06 0.019373469055 -2.0030605793 0.11301191151
          0.056410580873 -4.9495787621 -7.5383113654e-06 -0.029703365639 -2.1252467632 -0.012135953642
          1.3894644976 -8.1419029236 0.18025004864 0.40406197309 -6.5946321487 0.17362378538
          0.75782692432 -8.4011859894 -0.53510057926 7.3703918457 -12.473745346 4.3672034735e-06
          -0.033879179507 -2.1393003464 -3.6891551645e-06 0.75823432207 -8.350071907 -0.2043684423
          5.6055865288 -12.314208031 -0.44488957524 0 0 0
          -0.041839711368 -3.3800656796 -0.024129044265 11.162021637 -12.957971573 0.29965698719
          -0.010707551613 -0.98872035742 0.005293529015 3.4899971485 -10.272120476 0.21376344562
          5.6160378456 -12.342025757 -0.21603603661 4.9584970474 -10.330756187 0.47866770625
          9.2338819504 -12.683185577 0.27403372526 1.9411232471 -10.17891407 -0.4487837255
          0.15383242071 -6.5342946053 -0.12856422365 0.034836858511 -3.3180494308 0.114109613
          -0.047989480197 -3.4448316097 -0.0092455456033 0.061978913844 -4.9328112602 0.082127012312
          1.9109005928 -10.168639183 -0.20310890675 0.11264076084 -6.6350622177 -0.12343148142
          0.78136980534 -8.3953790665 -7.0195783337e-06 1.3874309063 -8.0758895874 0.33274930716
          7.3687882423 -12.465499878 0.24614493549 0.45436871052 -6.6106033325 0.42365917563
          5.6104226112 -12.350227356 1.9516310203e-06 -0.029704032466 -2.1252462864 0.012128643692
          -0.04894560948 -3.4671719074 -5.5959917518e-06 1.8901362419 -10.16119957 -3.6478199945e-06
          0.12351739407 -6.6401228905 -8.5378642325e-06 -0.04529267177 -4.8793911934 -0.017617680132
          4.0107984543 -12.298434258 -0.42596489191 11.148277283 -12.92192173 0.59928280115
          0 0 0 0.75823646784 -8.3500680923 0.20435477793
          -0.0047231796198 -0.95663964748 0.01328125596 -0.055996019393 -4.9577703476 -0.0091428337619
          3.4847714901 -10.252324104 0.42685565352 9.2189884186 -12.644938469 0.55125826597
          4.0189642906 -12.313199997 -0.20633257926 12.137133598 -14.894278526 -0.59468066692
          0 0 0 0.069717720151 -4.8394079208 0.12992021441
          12.143555641 -14.936620712 -0.29661536217 -0.047509562224 -0.97263753414 0.033287297934
          10.116394997 -14.615643501 -0.53638625145 5.6160402298 -12.342020988 0.21603998542
          0 0 0 -0.047990262508 -3.4448306561 0.0092345708981
          10.124125481 -14.659427643 -0.26692461967 -0.039032369852 -1.0023975372 0.013916010968
          1.9109032154 -10.168635368 0.20310173929 0.11264154315 -6.6350593567 0.1234144941
          7.3541035652 -12.430329323 0.49772799015 -0.060914840549 -4.9829392433 -7.2144289334e-06
          4.014400959 -12.323634148 -4.8003283837e-07 -0.022480437532 -2.0751335621 0.020044824108
          1.1210093498 -10.361557007 -0.47111201286 -0.088083788753 -2.0961065292 0.042216133326
          8.106010437 -14.390476227 -0.47404152155 0.037064008415 -8.7209148407 -0.54147911072
          12.147892952 -14.950632095 1.0800667951e-05 0 0 0
          1.1795725822 -10.358963966 -0.22324475646 10.127227783 -14.673201561 8.1943735495e-06
          -0.039071250707 -1.0102157593 -1.3593682979e-06 8.1194601059 -14.430100441 -0.23273278773
          -0.082479216158 -2.139534235 0.022783637047 0.1013052687 -8.692065239 -0.26629385352
          0.75783008337 -8.4011764526 0.53508722782 1.1844255924 -10.348621368 -6.2592816903e-06
          -0.066676020622 -6.6098432541 -0.047398097813 -0.05599667877 -4.9577689171 0.0091287121177
          2.6493651867 -12.304445267 -0.44112476707 8.1239280701 -14.438253403 5.5582036111e-06
          5.6055903435 -12.314198494 0.44489362836 4.018966198 -12.313195229 0.20633165538
          0.12367613614 -8.6662759781 -9.8770151453e-06 -0.080815672874 -2.154050827 -3.0517630876e-06
          -0.041842561215 -3.3800649643 0.024118639529 12.143557549 -14.936615944 0.29663699865
          6.1829929352 -14.279302597 -0.40641099215 -0.072692982852 -6.6915173531 -0.023204119876
          -0.12197516114 -3.3946943283 0.050924103707 2.648162365 -12.313183784 -0.20942538977
          1.9411275387 -10.178904533 0.44877687097 0.1538323313 -6.5342898369 0.12854892015
          0 0 0 -0.11873735487 -3.4471812248 0.027141418308
          10.124128342 -14.659421921 0.26694104075 -0.039032775909 -1.0023975372 -0.013918688521
          6.1674871445 -14.298387527 -0.20264352858 -0.075027674437 -6.7183146477 -8.5690107881e-06
          2.62839818 -12.315523148 -2.9672028177e-06 1.1795743704 -10.358960152 0.22323235869
          6.1354184151 -14.291883469 2.9503166843e-06 -0.11911682039 -3.4654691219 -4.7873195399e-06
          8.1194629669 -14.430094719 0.2327439487 -0.082480102777 -2.139534235 -0.022789727896
          0.10130702704 -8.6920604706 0.2662742734 -0.045295089483 -4.8793897629 0.017604390159
          4.010802269 -12.298423767 0.42596402764 4.5021362305 -14.263705254 -0.37467870116
          12.13713932 -14.894268036 0.59470236301 0 0 0
          -0.15148627758 -4.888862133 0.057506769896 -0.047511581331 -0.97263789177 -0.033290281892
          10.116399765 -14.615633011 0.53640282154 -0.072693355381 -6.6915159225 0.023187281564
          2.6481647491 -12.313178062 0.2094194293 4.4922351837 -14.27644062 -0.18186242878
          0.37334364653 -10.680715561 -0.46923661232 -0.14860722423 -4.9465618134 0.031575154513
          -0.11873845011 -3.4471812248 -0.02715087682 6.1674895287 -14.298382759 0.20264947414
          0.38922670484 -10.681447983 -0.20323176682 1.4279440641 -12.288506508 -0.35199317336
          -0.012141325511 -8.5086612701 -0.014494129457 13.133127213 -16.949449539 -0.59899294376
          0 0 0 11.007629395 -16.664983749 -0.53198105097
          1.1210124493 -10.36154747 0.47109875083 -0.088086761534 -2.0961070061 -0.042222160846
          8.1060152054 -14.39046669 0.47405281663 -0.035146955401 -8.6313810349 -0.05717838183
          1.4512554407 -12.339333534 -0.17832167447 0.037066698074 -8.7209043503 0.54145938158
          13.134181023 -16.998142242 -0.29855397344 0 0 0
          -0.1493178159 -4.9682850838 -6.3658553699e-06 4.4589271545 -14.281770706 3.7592812419e-07
          -0.09179545939 -0.95769101381 0.07552678138 11.010055542 -16.714822769 -0.26519286633
          -0.06982666254 -0.98589831591 0.031573165208 0.41814285517 -10.672335625 -9.4497436294e-06
          8.8700742722 -16.417423248 -0.46030452847 -0.028014503419 -8.6361684799 -9.4292445283e-06
          1.4736324549 -12.372070312 -5.7463998928e-06 13.136464119 -17.014026642 1.263408285e-05
          0 0 0 -0.15192121267 -2.06513381 0.098633825779
          8.8764591217 -16.467237473 -0.22846665978 11.012042046 -16.730609894 9.7486781669e-06
          -0.066677585244 -6.6098413467 0.047382183373 2.6493690014 -12.304434776 0.44111856818
          -0.068502865732 -0.99317705631 -1.0243106772e-06 -0.13709813356 -2.1049044132 0.050729185343
          6.1829977036 -14.279292107 0.40641707182 -0.12197838724 -3.3946948051 -0.050933223218
          -0.16278471053 -6.5749092102 0.072902284563 3.1331725121 -14.279057503 -0.37249875069
          -0.14860829711 -4.9465618134 -0.031587708741 4.4922375679 -14.276434898 0.18186320364
          -0.16346663237 -6.6438450813 0.036163095385 3.1424615383 -14.273608208 -0.18147501349
          0.38922798634 -10.681443214 0.20321312547 8.8794660568 -16.482431412 6.8257559178e-06
          -0.13185046613 -2.1178154945 -2.4068554012e-06 6.6949677467 -16.240743637 -0.38945177197
          -0.035147801042 -8.6313781738 0.057159490883 1.451256752 -12.339327812 0.17831009626
          13.13418293 -16.99813652 0.29857927561 0 0 0
          -0.1959259212 -3.3468921185 0.11103960872 6.7004790306 -16.273090363 -0.19509282708
          11.010057449 -16.714817047 0.26521238685 -0.18732205033 -3.3924229145 0.057687714696
          -0.16456273198 -6.6673698425 -7.7147078628e-06 3.1395440102 -14.270823479 -2.2373783395e-06
          -0.069827109575 -0.98589849472 -0.031575221568 8.8764619827 -16.46723175 0.22848036885
          6.6969094276 -16.273208618 3.9806027416e-06 -0.18419761956 -3.4080295563 -3.8922771637e-06
          4.502140522 -14.263694763 0.37467950583 0.70869326591 -12.613836288 -0.46918419003
          -0.13709907234 -2.1049046516 -0.050734035671 -0.15148928761 -4.8888626099 -0.05751875788
          -0.05780056864 -10.584963799 -0.087489828467 0.71709537506 -12.590420723 -0.1771735549
          0.37334674597 -10.680704117 0.46921774745 -0.055007621646 -10.651821136 -0.12200238556
          -0.16346766055 -6.6438446045 -0.036178305745 3.1424636841 -14.273602486 0.18147048354
          1.4279466867 -12.288495064 0.35198181868 -0.012143049389 -8.5086574554 0.014476279728
          -0.22485671937 -4.8183116913 0.12088091671 4.8967623711 -16.240112305 -0.33452132344
          13.133132935 -16.949438095 0.59901833534 0 0 0
          11.007635117 -16.664972305 0.5320007205 -0.21945554018 -4.8662557602 0.062633216381
          0.73293811083 -12.634989738 -8.6815880422e-06 -0.17780219018 -8.4419555664 0.080414421856
          1.8675528765 -14.288847923 -0.40748816729 4.8563103676 -16.22114563 -0.17081920803
          -0.091797277331 -0.95769160986 -0.075529195368 0.054096292704 -10.561721802 -1.0295220818e-05
          6.7004818916 -16.273084641 0.19510085881 -0.18732322752 -3.3924233913 -0.057695448399
          1.813710928 -14.240002632 -0.18467621505 -0.17602138221 -8.5158481598 0.042025540024
          8.8700799942 -16.417411804 0.46031841636 -0.21816568077 -4.8837046623 -5.2943551054e-06
          4.7749505043 -16.185804367 1.2865199324e-06 -0.15192398429 -2.0651347637 -0.098638743162
          1.7449244261 -14.186621666 -4.9342620514e-06 14.140143394 -19.114236832 -0.60550534725
          0 0 0 -0.16844500601 -8.5375146866 -8.8723336376e-06
          14.138563156 -19.166566849 -0.3021017015 0 0 0
          0.71709644794 -12.590415001 0.17715652287 11.904211044 -18.825622559 -0.53462809324
          -0.16278743744 -6.574909687 -0.072916768491 3.1331763268 -14.279047012 0.37249425054
          -0.13580718637 -0.91279238462 0.11863546073 -0.055009864271 -10.651820183 0.12198244035
          11.902901649 -18.878950119 -0.26707461476 -0.1011049971 -0.94091939926 0.049615316093
          6.6949729919 -16.240732193 0.38946002722 14.139169693 -19.183761597 1.4651513084e-05
          -0.21945677698 -4.866256237 -0.062643691897 9.64615345 -18.565834045 -0.4618050158
          -0.21541830897 -1.9823771715 0.15484431386 4.8563127518 -16.221139908 0.17082181573
          0 0 0 3.5769071579 -16.255979538 -0.37100058794
          -0.238428846 -6.4805579185 0.13137516379 -0.19592906535 -3.346893549 -0.11104720086
          -0.19235312939 -2.0216419697 0.079527854919 9.6472644806 -18.622119904 -0.23079267144
          11.903378487 -18.896697998 1.1433497093e-05 1.8137130737 -14.239997864 0.18466638029
          -0.23326209188 -6.5283155441 0.069161616266 3.5730905533 -16.231906891 -0.18527399004
          -0.17602242529 -8.5158472061 -0.042042929679 -0.098934717476 -0.94734233618 -7.1577386507e-07
          -0.066939905286 -12.904092789 -0.45588994026 9.6492919922 -18.640960693 8.1696625784e-06
          0.70869606733 -12.613824844 0.46916732192 -0.18395079672 -2.0331206322 -1.7800617798e-06
          -0.23303931952 -6.5468330383 -6.5433932832e-06 0.0017347618705 -12.899116516 -0.21205806732
          3.5609173775 -16.214647293 -1.434041792e-06 -0.057804327458 -10.584961891 0.087472878397
          14.138565063 -19.166561127 0.30213102698 7.3376097679 -18.324720383 -0.38108617067
          -0.17807354033 -10.47487545 0.068563073874 0 0 0
          -0.26591309905 -3.2320694923 0.17140969634 0.9774953723 -14.449386597 -0.39388796687
          -0.25486785173 -3.2763664722 0.088111683726 7.356221199 -18.38240242 -0.19077497721
          11.90290451 -18.878944397 0.26709750295 -0.18049409986 -10.553634644 0.028661873192
          1.02965343 -14.445098877 -0.20806708932 -0.10110542923 -0.94091969728 -0.049616783857
          -0.22485983372 -4.8183131218 -0.12089106441 4.8967666626 -16.240102768 0.33452403545
          0.026023503393 -12.873659134 -1.1156024811e-05 -0.17780472338 -8.4419555664 -0.080430813134
          1.8675572872 -14.288838387 0.40747848153 7.3741402626 -18.402576447 4.9653835958e-06
          9.6472682953 -18.622114182 0.23080907762 -0.19914881885 -10.55960083 -9.7440733953e-06
          -0.19235400856 -2.0216424465 -0.079531483352 -0.24988637865 -3.2901554108 -2.9753191484e-06
          -0.23326323926 -6.528316021 -0.069174528122 3.5730926991 -16.231901169 0.18527117372
          1.030654192 -14.402409554 -7.3474739111e-06 2.4238209724 -16.236783981 -0.38516783714
          -0.22984196246 -8.3226852417 0.14590066671 2.4077734947 -16.23021698 -0.18804015219
          -0.22620128095 -8.3699140549 0.075795508921 14.140149117 -19.11422348 0.60553473234
          0 0 0 0.0017344099469 -12.899110794 0.21203581989
          -0.2953312397 -4.6751127243 0.17765925825 5.2060704231 -18.145212173 -0.30363047123
          -0.29082030058 -4.7189350128 0.091242738068 11.904216766 -18.825609207 0.53465110064
          -0.13580873609 -0.91279309988 -0.11863730103 5.177670002 -18.144071579 -0.18012234569
          7.3562245369 -18.382396698 0.19078502059 -0.18049433827 -10.55363369 -0.028681097552
          -0.25486898422 -3.2763669491 -0.08811763674 1.0296543837 -14.445093155 0.20805239677
          2.369894743 -16.214830399 -4.0179006646e-06 -0.22944049537 -8.3875646591 -7.6040014392e-06
          9.6461591721 -18.565820694 0.4618216157 -0.21542075276 -1.9823783636 -0.15484809875
          3.576911211 -16.255968094 0.37099784613 -0.28914228082 -4.7331104279 -4.137948963e-06
          -0.23843167722 -6.4805598259 -0.13138757646 5.0904622078 -18.130464554 2.0816307824e-06
          15.154286385 -21.400453568 -0.60981506109 0 0 0
          -0.066938124597 -12.904081345 0.45586746931 2.4077754021 -16.230211258 0.18803213537
          0 0 0 12.805122375 -21.110960007 -0.53912675381
          -0.1915050149 -12.505667686 0.15828314424 -0.22620210052 -8.3699150085 -0.07581051439
          -0.18106518686 -0.83700799942 0.16563035548 0.24792376161 -14.703564644 -0.37736520171
          15.152194023 -21.453308105 -0.30461865664 7.33761549 -18.324707031 0.38109660149
          12.802592278 -21.164316177 -0.26999694109 -0.13326139748 -0.86419939995 0.069775111973
          -0.17807462811 -10.474874496 -0.068581901491 -0.2295743674 -12.632894516 -0.028712287545
          -0.26591593027 -3.2320713997 -0.17141565681 4.053498745 -18.118610382 -0.35492837429
          -0.29082149267 -4.7189354897 -0.091250963509 0.97749769688 -14.449376106 0.39387255907
          -0.29965189099 -6.3076615334 0.18135051429 5.1776723862 -18.144065857 0.18012659252
          0.26525577903 -14.730381012 -0.14561918378 -0.29792162776 -6.3478336334 0.093068383634
          4.0682034492 -18.117059708 -0.14411613345 10.442289352 -20.845149994 -0.46969732642
          15.151592255 -21.470869064 1.6876982045e-05 -0.27956694365 -1.8494510651 0.21653349698
          0 0 0 10.439986229 -20.90304184 -0.23475764692
          -0.24913227558 -1.8867359161 0.1115911454 12.802120209 -21.18262291 1.326308211e-05
          1.2443321943 -16.176485062 -0.33399420977 -0.16141904891 -12.667577744 -1.0843591554e-05
          0.27065369487 -14.705489159 -1.0090964679e-05 -0.20509615541 -10.293860435 0.16619899869
          -0.13088335097 -0.86894953251 -4.3581800924e-07 1.2482341528 -16.215055466 -0.14186729491
          4.0644855499 -18.13130188 -8.0310343265e-07 -0.2063229531 -10.348006248 0.086761370301
          -0.2972227335 -6.3620443344 -5.166712981e-06 2.4238243103 -16.236774445 0.3851596415
          10.440918922 -20.922805786 9.5946406873e-06 -0.22984410822 -8.322687149 -0.14591509104
          -0.23769418895 -1.8957675695 -1.1935851489e-06 8.0452079773 -20.588911057 -0.38417032361
          15.152196884 -21.453300476 0.30465242267 1.2442495823 -16.258953094 -6.5566709964e-06
          -0.34331160784 -3.0565969944 0.236190781 -0.29533410072 -4.6751146317 -0.17766736448
          -0.20728518069 -10.373601913 -8.6199697762e-06 5.2060751915 -18.145200729 0.30363509059
          0 0 0 8.0547351837 -20.659353256 -0.19420202076
          -0.32918655872 -3.1003389359 0.12296293676 12.802595139 -21.164308548 0.27002352476
          -0.22957457602 -12.632890701 0.028690759093 0.26525515318 -14.73037529 0.14559912682
          -0.13326181471 -0.86419963837 -0.069776050746 4.0682058334 -18.117053986 0.14411465824
          -0.29792276025 -6.3478341103 -0.093078635633 10.43998909 -20.90303421 0.23477689922
          8.0686254501 -20.687026978 5.968534424e-06 2.8878157139 -18.117137909 -0.34616646171
          -0.26582464576 -8.107585907 0.18135106564 -0.32308939099 -3.110906601 -2.1011553599e-06
          -0.24913311005 -1.886736393 -0.11159362644 -0.26517051458 -8.1427984238 0.098420873284
          1.2482346296 -16.215049744 0.14185410738 2.8574521542 -18.085975647 -0.14841385186
          -0.20632320642 -10.348006248 -0.086778342724 5.614821434 -20.254274368 -0.25890091062