<?xml version="1.0"?>
<VTKFile type="UnstructuredGrid" version="0.1" byte_order="LittleEndian" header_type="UInt32" compressor="vtkZLibDataCompressor">
  <UnstructuredGrid>
    <Piece NumberOfPoints="6405" NumberOfCells="4800">
      <PointData>
        <DataArray type="Float32" Name="DISPLACEMENT" NumberOfComponents="3" ComponentName0="X-DISPLACEMENT" ComponentName1="Y-DISPLACEMENT" ComponentName2="Z-DISPLACEMENT" format="ascii" RangeMin="0" RangeMax="250.51427236">
          0 0 0 0 0 0
          2.0262086391 -1.2414165735 -0.93804091215 0 0 0
          1.3048278093 -0.73483294249 -0.72527259588 0 0 0
          1.850669384 -1.3705886602 -0.37303870916 1.1355503798 -0.84147745371 -0.29590508342
          0 0 0 3.6356115341 -2.278519392 -0.96131300926
          0 0 0 3.5845873356 -2.4310293198 -0.49629217386
          2.6199061871 -1.8705352545 -0.79867082834 0 0 0
          0 0 0 1.8574512005 -1.4144796133 1.4365532479e-06
          0.9456050396 -0.5010638237 -0.55755454302 1.1310168505 -0.86325669289 6.4454866333e-07
          2.5650708675 -1.9928712845 -0.40805470943 0.81301426888 -0.60013318062 -0.22572174668
          3.5445408821 -2.474070549 3.0133028304e-06 1.9022804499 -1.5255173445 -0.62180310488
          0 0 0 2.5303881168 -2.0332796574 1.5334713908e-06
          1.8451207876 -1.6406402588 -0.31931602955 0 0 0
          5.0976390839 -3.6126906872 -0.90067249537 0 0 0
          0.8072963953 -0.61892229319 -1.8744933072e-07 0 0 0
          0 0 0 1.8506690264 -1.3705872297 0.37304151058
          3.8570518494 -3.2208814621 -0.7620189786 5.1139392853 -3.7236578465 -0.45943519473
          0.69228506088 -0.33460366726 -0.3764923811 1.1355507374 -0.84147590399 0.29590636492
          3.8704664707 -3.3258023262 -0.38842627406 0.60618901253 -0.44529002905 -0.15781983733
          1.8143264055 -1.6719890833 -6.8128613862e-08 3.5845873356 -2.4310264587 0.49629825354
          0 0 0 0 0 0
          1.2940711975 -1.3005660772 -0.42598536611 2.8708498478 -2.9105606079 -0.62404119968
          5.1012783051 -3.7639989853 4.8588331083e-06 2.5650715828 -1.992868185 0.40805783868
          2.8626179695 -3.0108106136 -0.31700891256 0.8130146265 -0.60013139248 0.22572143376
          3.8617944717 -3.3609313965 2.6848763355e-06 1.2351434231 -1.4151118994 -0.22072044015
          0.60438072681 -0.46166190505 -1.3929200122e-06 0 0 0
          6.4526486397 -5.1284236908 -0.80512428284 0 0 0
          5.0249490738 -4.7724590302 -0.70231515169 1.8451216221 -1.6406369209 0.31931594014
          6.4901251793 -5.2090296745 -0.40764167905 2.0262093544 -1.2414139509 0.93804371357
          0 0 0 0 0 0
          1.2120443583 -1.4439115524 -1.8532507511e-06 2.8526763916 -3.0416731834 4.1283846031e-07
          0.26502963901 -0.26768326759 -0.15596826375 5.058110714 -4.8523020744 -0.35427200794
          1.3048292398 -0.73482978344 0.7252741456 1.973541379 -2.7019104958 -0.48192429543
          0 0 0 5.1139397621 -3.7236535549 0.45944499969
          0.22395478189 -0.40551489592 -0.081959083676 1.9414675236 -2.7929496765 -0.24568100274
          3.8704679012 -3.3257977962 0.38843172789 0.60618966818 -0.44528803229 0.15781721473
          3.8137617111 -4.4890751839 -0.60117900372 0.44079661369 -1.1726806164 -0.23454073071
          6.4911427498 -5.2374010086 6.9037814683e-06 3.6356129646 -2.2785134315 0.96131926775
          0 0 0 0 0 0
          3.8269457817 -4.5666203499 -0.30296975374 2.6199085712 -1.8705291748 0.7986741066
          5.0631875992 -4.8801569939 4.0969821384e-06 0.38208225369 -1.2884206772 -0.13005204499
          0.94560557604 -0.50106012821 0.5575543642 0.23065835238 -0.44065761566 -3.0501134916e-06
          1.931055665 -2.8213012218 -2.0295376544e-06 2.8626191616 -3.0108058453 0.31700980663
          1.235144496 -1.4151084423 0.22071677446 3.82776618 -4.5930461884 1.207711648e-06
          1.9022819996 -1.5255106688 0.62180322409 0.3718008399 -1.3194625378 -3.7011657241e-06
          2.6877381802 -4.2969436646 -0.50598973036 6.490126133 -5.2090244293 0.40765556693
          5.097641468 -3.6126821041 0.90068250895 0 0 0
          7.6900196075 -6.7800736427 -0.72414827347 0 0 0
          0 0 0 0.88501858711 -2.5560512543 -0.38344991207
          2.6827657223 -4.3680205345 -0.25584247708 7.7270050049 -6.838517189 -0.36413100362
          6.1177973747 -6.4513115883 -0.64813315868 5.0581126213 -4.8522963524 0.35428026319
          0.016081651673 -0.4621014297 -0.17096076906 0 0 0
          3.8570554256 -3.2208724022 0.76202464104 0.6922852397 -0.33459943533 0.37648996711
          0.83865582943 -2.6308498383 -0.18685029447 0.2239562422 -0.40551257133 0.081953339279
          -0.074586264789 -0.51059609652 -0.062227979302 1.9414688349 -2.7929446697 0.24567699432
          6.1514129639 -6.5120506287 -0.32470089197 3.8269474506 -4.566614151 0.30297219753
          2.6801440716 -4.3950171471 -1.8637068706e-06 7.7333450317 -6.8594589233 9.137818779e-06
          0.15318779647 -1.412427187 -0.34227412939 0.38208422065 -1.2884169817 0.13004463911
          0 0 0 4.7260994911 -6.1820602417 -0.57084262371
          1.2940722704 -1.3005589247 0.42598187923 2.8708524704 -2.9105510712 0.62404227257
          0.82909047604 -2.6575529575 -4.6575519264e-06 6.1600952148 -6.5333638191 5.7548732002e-06
          -0.061840396374 -0.56701207161 -6.0749248405e-06 0.11849635839 -1.4284348488 -0.13206237555
          4.7461881638 -6.2430934906 -0.28642699122 6.4526519775 -5.1284122467 0.80513840914
          0 0 0 1.5630123615 -4.1476044655 -0.44129809737
          5.0249533653 -4.7724475861 0.70232361555 0.1257045269 -1.4785112143 -7.628070307e-06
          1.5469074249 -4.2130331993 -0.21138858795 4.7513613701 -6.2645616531 2.2938161237e-06
          0.26503053308 -0.26767838001 0.15596303344 2.6827673912 -4.3680143356 0.2558387816
          3.434595108 -5.9727659225 -0.49446880817 7.7270064354 -6.8385105133 0.36414936185
          0.3961583972 -2.6644964218 -0.3557062149 1.9735432863 -2.7019007206 0.48192045093
          0 0 0 0.83865833282 -2.6308448315 0.18684101105
          3.4424085617 -6.0347261429 -0.2486667037 -0.074583798647 -0.51059371233 0.062216326594
          0.4133862257 -2.7173016071 -0.15960463881 6.1514153481 -6.5120439529 0.32471245527
          3.8137655258 -4.4890627861 0.60118162632 0.44079861045 -1.1726732254 0.23453345895
          8.8251590729 -8.5213718414 -0.66426080465 0 0 0
          1.5317877531 -4.2342143059 -5.2536602198e-06 7.1413402557 -8.2156763077 -0.60448378325
          8.8547945023 -8.5671195984 -0.33308151364 0 0 0
          0.059997756034 -0.68352901936 -0.11201888323 7.1690030098 -8.2644462585 -0.30186128616
          3.4417946339 -6.0562434196 -1.3290397192e-06 0.029442232102 -0.72423040867 -0.041668519378
          0.11849923432 -1.4284310341 0.13204748929 0.40353810787 -2.7435491085 -8.7846883616e-06
          4.7461905479 -6.243086338 0.28643164039 5.6040802002 -7.9617943764 -0.54120695591
          -0.01547481399 -1.6081286669 -0.12501873076 8.8619251251 -8.5835065842 1.15627372e-05
          0 0 0 -0.051724895835 -1.6656726599 -0.091721311212
          5.62368536 -8.0119514465 -0.27052178979 7.1772356033 -8.2815828323 7.6517153502e-06
          0.020385403186 -0.73712724447 -4.6469849622e-06 2.6877410412 -4.2969307899 0.50598615408
          2.2377052307 -5.7956614494 -0.40629914403 7.6900243759 -6.7800602913 0.72416687012
          0 0 0 0.65620028973 -4.0884771347 -0.26923826337
          1.5469100475 -4.2130265236 0.21137803793 0.88502156734 -2.5560407639 0.38344076276
          6.1178030968 -6.45129776 0.6481449604 0.016082750633 -0.46209454536 0.17094929516
          0.67011058331 -4.1833438873 -0.15060886741 2.2356624603 -5.8661327362 -0.20379583538
          3.4424109459 -6.0347185135 0.2486640662 0.41338923573 -2.7172963619 0.15958717465
          5.6294288635 -8.029291153 3.6602702949e-06 -0.051887605339 -1.6761758327 -8.9325139925e-06
          4.1802611351 -7.7668094635 -0.47574159503 -0.22392083704 -2.8584425449 -0.26959887147
          0.15319007635 -1.4124176502 0.34225916862 8.8547973633 -8.5671110153 0.33310469985
          4.7261042595 -6.1820454597 0.57084745169 0 0 0
          2.23163867 -5.8854708672 -5.2499740377e-06 0.66907477379 -4.1993741989 -9.3002772701e-06
          4.1901841164 -7.816754818 -0.23697568476 7.1690058708 -8.2644386292 0.30187666416
          -0.23422192037 -2.9145481586 -0.11344680935 0.029442543164 -0.72422808409 0.041659560055
          1.563016057 -4.1475906372 0.44128742814 4.1926860809 -7.8320522308 -4.6816407462e-07
          5.623688221 -8.0119428635 0.27052918077 -0.051723603159 -1.6656690836 0.091703347862
          -0.21945106983 -2.9257628918 -1.3864857465e-05 9.8833847046 -10.327524185 -0.62501579523
          0 0 0 9.9045658112 -10.368001938 -0.31289640069
          3.4345991611 -5.9727511406 0.49446624517 8.1045331955 -10.040312767 -0.57180255651
          0.39616167545 -2.6644842625 0.35568848252 0.91001373529 -5.6681756973 -0.26118955016
          0.010522352532 -0.81960076094 -0.048189349473 0.67011326551 -4.1833372116 0.15059018135
          2.2356648445 -5.86612463 0.20378533006 0 0 0
          8.1248960495 -10.083368301 -0.2849778831 0.90436857939 -5.7568874359 -0.14595265687
          -0.01152060274 -0.85323697329 -0.020291155204 2.8346045017 -7.6313357353 -0.39859628677
          -0.017932731658 -4.3323454857 -0.29691335559 8.8251647949 -8.5213565826 0.66428422928
          0 0 0 7.1413469315 -8.2156600952 0.60449939966
          9.9110355377 -10.382329941 1.4196352822e-05 -0.069443918765 -4.3567066193 -0.11678067595
          2.8258633614 -7.6744303703 -0.20159247518 0.059994548559 -0.68352556229 0.11201044917
          6.4335813522 -9.8094511032 -0.51507359743 -0.043387167156 -1.8335795403 -0.085743375123
          0 0 0 4.1901865005 -7.8167462349 0.23697479069
          -0.23421826959 -2.9145431519 0.11341936886 8.1312007904 -10.098077774 9.7883948911e-06
          0.91792994738 -5.7810344696 -9.455381587e-06 6.4507927895 -9.8526382446 -0.25594106317
          -0.063185289502 -1.8810716867 -0.03846860677 -0.012934905477 -0.86165851355 -4.197650469e-06
          5.6040859222 -7.9617776871 0.5412145257 -0.015477383509 -1.608123064 0.12500287592
          2.8244562149 -7.6854662895 -4.7843636821e-06 -0.034655641764 -4.3998937607 -1.4594547793e-05
          2.2377092838 -5.795645237 0.40628859401 6.4554057121 -9.866938591 5.2937434702e-06
          -0.069212377071 -1.8982481956 -8.8576907729e-06 0.65620404482 -4.0884628296 0.26921927929
          9.9045686722 -10.367993355 0.31292486191 4.8703775406 -9.6577348709 -0.46036121249
          0 0 0 -0.06745775789 -3.0215275288 -0.097292162478
          4.8820118904 -9.695681572 -0.22787755728 8.1248989105 -10.083358765 0.28499752283
          -0.011520837434 -0.85323554277 0.020283157006 0.90437120199 -5.7568793297 0.145933792
          -0.087090589106 -3.087877512 -0.058403290808 4.1802659035 -7.7667922974 0.47574087977
          1.3159627914 -7.510887146 -0.35620823503 2.825865984 -7.6744217873 0.20158296824
          -0.2239176333 -2.8584284782 0.26957121491 -0.069440595806 -4.3566999435 0.1167518422
          0.21753107011 -5.9183297157 -0.40259835124 1.2847955227 -7.5430378914 -0.16962310672
          4.8840494156 -9.7082862854 7.1552386771e-07 6.4507961273 -9.8526296616 0.2559517324
          -0.063185788691 -1.8810690641 0.038451191038 0.18361344934 -5.896335125 -0.15343621373
          -0.094547599554 -3.0984377861 -1.2918339962e-05 10.895055771 -12.189586639 -0.60379844904
          0 0 0 -0.019406862557 -0.90088647604 -0.0090259788558
          1.2793700695 -7.5539774895 -9.2316049631e-06 3.3906476498 -9.5880975723 -0.42000630498
          9.0215415955 -11.911897659 -0.54886955023 9.8833913803 -10.327507019 0.62504446507
          0 0 0 0 0 0
          0.20670281351 -5.9425644875 -1.4891709725e-05 -0.092704430223 -4.3952245712 -0.12864769995
          10.908343315 -12.230817795 -0.30183282495 3.3921420574 -9.612408638 -0.20776517689
          9.0354089737 -11.95489502 -0.27297013998 8.1045408249 -10.040294647 0.57182240486
          -0.025413759053 -0.92794877291 -0.0026807966642 0.91001778841 -5.6681594849 0.2611708343
          0.010518179275 -0.8195990324 0.048181246966 -0.10394951701 -4.4642634392 -0.073265507817
          4.8820147514 -9.6956720352 0.22787904739 -0.087091110647 -3.0878734589 0.058377407491
          7.2119231224 -11.696969032 -0.48925307393 2.8346090317 -7.6313185692 0.39858692884
          -0.017928769812 -4.3323297501 0.29688459635 0 0 0
          -0.06133762002 -1.9396336079 -0.0177662801 10.913655281 -12.245020866 1.7070386093e-05
          -0.027077766135 -0.93583405018 -3.6223161715e-06 3.3944075108 -9.6237001419 -3.9681522139e-06
          7.2251939774 -11.73731041 -0.24199427664 6.4335885048 -9.8094329834 0.51508450508
          9.0399618149 -11.968753815 1.2165245607e-05 -0.043391890824 -1.8335757256 0.085726678371
          -0.11823526025 -4.4749455452 -1.6025134755e-05 -0.069609932601 -1.9811097383 -0.0085713947192
          1.2847988605 -7.5430293083 0.16960471869 0.18361718953 -5.8963274956 0.15340687335
          0.55333328247 -7.6963677406 -0.44122210145 7.2266812325 -11.748105049 7.164966064e-06
          -0.07221788168 -1.9942829609 -7.9031206042e-06 0.57626879215 -7.6891732216 -0.1832292974
          5.50085783 -11.571620941 -0.43199449778 0 0 0
          -0.11720562726 -3.1393222809 -0.027412360534 10.908346176 -12.230808258 0.30186700821
          -0.025414464995 -0.92794805765 0.0026737418957 3.3921449184 -9.6123991013 0.20775730908
          5.5111942291 -11.604783058 -0.21104243398 4.8703832626 -9.6577157974 0.46036288142
          9.0354127884 -11.954884529 0.27299454808 1.9759587049 -9.5337705612 -0.42954611778
          -0.09306846559 -5.9595561028 -0.12924829125 -0.067462027073 -3.0215213299 0.097268432379
          -0.12466038018 -3.1912548542 -0.011270347051 -0.10394950211 -4.4642586708 0.073233790696
          1.9456771612 -9.540096283 -0.19868944585 -0.12728494406 -6.0363345146 -0.11419417709
          0.57061511278 -7.7066287994 -1.4773830117e-05 1.3159681559 -7.510869503 0.35619014502
          7.2251982689 -11.737300873 0.24200868607 0.21753573418 -5.9183120728 0.40256923437
          5.5068249702 -11.614946365 2.1225985165e-06 -0.069611527026 -1.9811085463 0.0085556814447
          -0.12821233273 -3.2096703053 -1.218199759e-05 1.9115132093 -9.5355033875 -8.8230617621e-06
          -0.10992055386 -6.0417490005 -1.829122084e-05 -0.17869135737 -4.5184993744 -0.028730189428
          3.9259924889 -11.518795013 -0.40098956227 10.8950634 -12.189567566 0.60383278131
          0 0 0 0.57627248764 -7.6891646385 0.18319994211
          -0.019411426038 -0.9008859396 0.0090184221044 -0.1904553473 -4.5820732117 -0.015937713906
          3.390652895 -9.5880784988 0.41999861598 9.0215501785 -11.911877632 0.54889416695
          3.9337697029 -11.54238224 -0.19611518085 11.889117241 -14.116979599 -0.5970800519
          0 0 0 -0.092707246542 -4.395216465 0.12861825526
          11.895798683 -14.162883759 -0.29790434241 -0.048598039895 -0.93514400721 0.027018303052
          9.9146490097 -13.838846207 -0.53423887491 5.5111980438 -11.604773521 0.21104680002
          0 0 0 -0.12466227263 -3.1912529469 0.011246491224
          9.9224739075 -13.885919571 -0.26581323147 -0.042598098516 -0.95888990164 0.011526977643
          1.9456810951 -9.5400867462 0.19867177308 -0.12728391588 -6.0363287926 0.11415796727
          7.2119307518 -11.696949959 0.48926770687 -0.19232836366 -4.6020021439 -1.5890611394e-05
          3.9273483753 -11.553367615 -2.8877118439e-06 -0.061344124377 -1.939632535 0.017751088366
          0.84504342079 -9.5592279434 -0.32526239753 -0.10333473235 -1.9939235449 0.0311548803
          7.9565701485 -13.615915298 -0.46747738123 -0.24749338627 -7.9753947258 -0.41979342699
          11.899684906 -14.178076744 2.0224164473e-05 0 0 0
          0.86958009005 -9.6010074615 -0.18746361136 9.9255247116 -13.900736809 1.477713522e-05
          -0.042604047805 -0.96552139521 -3.0167434488e-06 7.9671339989 -13.658615112 -0.22978521883
          -0.10040941089 -2.0289177895 0.017133418471 -0.23023867607 -7.9807124138 -0.18575146794
          0.55333858728 -7.6963486671 0.44119241834 0.88103926182 -9.5980844498 -1.4119959815e-05
          -0.27717244625 -6.1345658302 -0.056500371546 -0.19045691192 -4.5820708275 0.015906563029
          2.542444706 -11.478313446 -0.38012206554 7.9691972733 -13.66744709 9.2346817837e-06
          5.5008649826 -11.571600914 0.43199914694 3.9337732792 -11.54237175 0.19610948861
          -0.20590533316 -7.9656186104 -2.0624282115e-05 -0.099589370191 -2.0409014225 -6.8435679168e-06
          -0.11721222103 -3.1393203735 0.027389606461 11.895801544 -14.162873268 0.29794484377
          6.0846366882 -13.497430801 -0.39434373379 -0.28665098548 -6.204076767 -0.022728336975
          -0.16520892084 -3.2061533928 0.034815553576 2.5449392796 -11.496927261 -0.19154788554
          1.975965023 -9.5337505341 0.4295283854 -0.09306973964 -5.959546566 0.12921541929
          0 0 0 -0.16451379657 -3.2497930527 0.01883680746
          9.9224786758 -13.885909081 0.26584282517 -0.042599048465 -0.95888984203 -0.011532933451
          6.072851181 -13.523979187 -0.19407957792 -0.29520919919 -6.2223305702 -1.918912676e-05
          2.5349943638 -11.501820564 -7.9554774857e-06 0.86958318949 -9.6009979248 0.18743525445
          6.0473051071 -13.522921562 3.7255499592e-06 -0.16471262276 -3.264734745 -1.0853565982e-05
          7.9671382904 -13.658604622 0.22980378568 -0.1004114449 -2.028917551 -0.017147080973
          -0.23023527861 -7.9807038307 0.18571022153 -0.17869704962 -4.5184960365 0.028700863943
          3.9259989262 -11.518774986 0.40098404884 4.4200911522 -13.466809273 -0.35654729605
          11.88912487 -14.116958618 0.59712064266 0 0 0
          -0.23849253356 -4.6041135788 0.037888206542 -0.048602618277 -0.93514448404 -0.027024965733
          9.9146575928 -13.838825226 0.53426867723 -0.28665143251 -6.2040729523 0.022690784186
          2.5449428558 -11.496916771 0.1915319711 4.4101147652 -13.483467102 -0.17074002326
          0.04750579223 -9.8529844284 -0.40972039104 -0.2383159101 -4.6538481712 0.021594664082
          -0.16451627016 -3.2497928143 -0.018858266994 6.0728554726 -13.523968697 0.19408717752
          0.029184315354 -9.8290214539 -0.17172276974 1.1128857136 -11.399414062 -0.33879318833
          -0.36736887693 -7.9235978127 0.0047249570489 12.885928154 -16.134162903 -0.59895563126
          0 0 0 10.801059723 -15.850944519 -0.52897530794
          0.84504896402 -9.5592079163 0.32523366809 -0.10334154218 -1.9939242601 -0.031168427318
          7.9565787315 -13.615894318 0.4674962163 -0.39115208387 -8.0187244415 -0.094900727272
          1.1144552231 -11.424181938 -0.16565258801 -0.24748817086 -7.9753746986 0.41975188255
          12.88774395 -16.185092926 -0.29859918356 0 0 0
          -0.2404705286 -4.6715922356 -1.4651269339e-05 4.3824214935 -13.489608765 -1.631691589e-06
          -0.078943103552 -0.93791782856 0.059327065945 10.803760529 -15.902862549 -0.26370692253
          -0.061940271407 -0.95997279882 0.024712469429 0.070787250996 -9.8607826233 -1.9861245164e-05
          8.7084512711 -15.607610703 -0.45477294922 -0.33004519343 -8.0385351181 -2.1995176212e-05
          1.1257766485 -11.440686226 -1.3259345906e-05 12.889948845 -16.201719284 2.3693242838e-05
          0 0 0 -0.14117129147 -1.9961458445 0.076480217278
          8.7146854401 -15.658099174 -0.22521294653 10.805560112 -15.919350624 1.7611624571e-05
          -0.27717581391 -6.1345601082 0.056464843452 2.5424509048 -11.478293419 0.3801060915
          -0.060984522104 -0.96598887444 -2.421590807e-06 -0.12977452576 -2.0282342434 0.039467781782
          6.0846447945 -13.497409821 0.39435172081 -0.16521634161 -3.206154108 -0.034836228937
          -0.31361433864 -6.1988320351 0.050930485129 2.9875593185 -13.481348991 -0.35634103417
          -0.23831816018 -4.6538476944 -0.02162351273 4.4101190567 -13.483455658 0.17073687911
          -0.31757360697 -6.2575774193 0.019919520244 2.9928455353 -13.478455544 -0.16998142004
          0.02918715775 -9.8290109634 0.17168310285 8.7183914185 -15.6726408 1.1444938536e-05
          -0.12560153008 -2.0387365818 -5.686462373e-06 6.6022839546 -15.443437576 -0.3811891377
          -0.39115139842 -8.0187187195 0.094857238233 1.1144583225 -11.424171448 0.16562612355
          12.887746811 -16.185081482 0.29864656925 0 0 0
          -0.19882802665 -3.2080755234 0.086450517178 6.5905122757 -15.474392891 -0.18973663449
          10.803765297 -15.902850151 0.26374217868 -0.19212521613 -3.2462589741 0.045027345419
          -0.31477111578 -6.2783379555 -1.8138776795e-05 2.9926936626 -13.479578972 -6.8637305048e-06
          -0.061941277236 -0.95997321606 -0.024717314169 8.7146902084 -15.658086777 0.22523595393
          6.5700368881 -15.47208786 5.5179853007e-06 -0.19019244611 -3.2590017319 -9.2411319201e-06
          4.4200983047 -13.466787338 0.35654452443 0.32455319166 -11.667173386 -0.4545687139
          -0.12977664173 -2.0282349586 -0.039479222149 -0.23849929869 -4.6041140556 -0.037915714085
          -0.73564642668 -10.105513573 -0.41099151969 0.34559577703 -11.645215988 -0.16848552227
          0.047511186451 -9.8529634476 0.40968060493 -0.69182485342 -10.074768066 -0.2185382545
          -0.31757512689 -6.2575759888 -0.019955184311 2.9928488731 -13.478445053 0.16996778548
          1.1128914356 -11.399393082 0.33876693249 -0.3673709631 -7.9235892296 -0.004764766898
          -0.25345769525 -4.5993762016 0.095025278628 4.8263039589 -15.435272217 -0.32541051507
          12.885936737 -16.134138107 0.59900307655 0 0 0
          10.80106926 -15.850920677 0.52901077271 -0.24950926006 -4.6411886215 0.049246735871
          0.34177407622 -11.670167923 -1.8652021026e-05 -0.41696661711 -8.014046669 0.020986950025
          1.6745406389 -13.496667862 -0.39632821083 4.777317524 -15.429466248 -0.16218315065
          -0.07894731313 -0.93791902065 -0.059332713485 -0.24684508145 -9.8153533936 -2.3583512302e-05
          6.5905170441 -15.474381447 0.18974779546 -0.19212782383 -3.2462596893 -0.045045681298
          1.62043643 -13.460255623 -0.17807841301 -0.41211369634 -8.0702447891 0.011517962441
          8.7084598541 -15.607587814 0.45479628444 -0.24819085002 -4.6558709145 -1.2693413737e-05
          4.6959824562 -15.410103798 -2.1224599323e-07 -0.14117774367 -1.996147871 -0.076491773129
          1.5502041578 -13.418969154 -1.1997393813e-05 13.890405655 -18.264997482 -0.60315746069
          0 0 0 -0.38171553612 -8.0615758896 -2.1278257918e-05
          13.889633179 -18.318477631 -0.30094727874 0 0 0
          0.34559828043 -11.645205498 0.16844837368 11.691008568 -17.978149414 -0.53077834845
          -0.31361976266 -6.1988315582 -0.050964102149 2.9875659943 -13.481328011 0.35632765293
          -0.10660695285 -0.91025370359 0.091342426836 -0.69182413816 -10.074757576 0.21848849952
          11.690443039 -18.032552719 -0.26525679231 -0.079155825078 -0.93203485012 0.038233805448
          6.6022934914 -15.443415642 0.38120079041 13.890192032 -18.336078644 2.7491018045e-05
          -0.24951180816 -4.6411895752 -0.04927181825 9.4742002487 -17.721097946 -0.45666801929
          -0.17197366059 -1.9438662529 0.12128503621 4.7773222923 -15.429455757 0.16218286753
          0 0 0 3.4211080074 -15.438816071 -0.35019028187
          -0.30207815766 -6.1851096153 0.10089863837 -0.19883525372 -3.2080783844 -0.086468458176
          -0.15289317071 -1.9754264355 0.061900414526 9.4747171402 -17.778690338 -0.22846968472
          11.691204071 -18.050672531 2.063626016e-05 1.6204401255 -13.460245132 0.17805445194
          -0.29872778058 -6.2278194427 0.05340931192 3.4156002998 -15.424699783 -0.17705969512
          -0.41211411357 -8.0702419281 -0.011559703387 -0.077130794525 -0.93744504452 -1.8561969455e-06
          -0.5082628727 -11.951942444 -0.42290022969 9.4764251709 -17.798988342 1.3730630599e-05
          0.32455861568 -11.667152405 0.45453134179 -0.14641650021 -1.9849925041 -4.5008678171e-06
          -0.29729926586 -6.2412257195 -1.5891309886e-05 -0.45811671019 -11.961342812 -0.17965342104
          3.403137207 -15.416373253 -5.6414442042e-06 -0.73564308882 -10.105493546 0.41094243526
          13.889636993 -18.318464279 0.30100226402 7.2040672302 -17.492923737 -0.37820893526
          -0.43178406358 -9.9328126907 0.043948266655 0 0 0
          -0.21830867231 -3.135420084 0.13681130111 0.59948050976 -13.566025734 -0.33595007658
          -0.20838594437 -3.1719555855 0.070681236684 7.217048645 -17.54753685 -0.19033671916
          11.690447807 -18.032539368 0.26529806852 -0.42832621932 -10.01507473 -0.02859612368
          0.6350004077 -13.577783585 -0.19450891018 -0.079156786203 -0.93203550577 -0.038237575442
          -0.25346463919 -4.5993790627 -0.09504942596 4.826312542 -15.435250282 0.32541072369
          -0.43477517366 -11.923755646 -2.3600108761e-05 -0.41696947813 -8.014043808 -0.021026371047
          1.6745473146 -13.496647835 0.39630433917 7.23036623 -17.565769196 7.0907244663e-06
          9.4747219086 -17.778676987 0.22849723697 -0.47673174739 -9.9839811325 -2.3801145289e-05
          -0.15289513767 -1.9754275084 -0.061909534037 -0.20423109829 -3.1834154129 -7.4382551247e-06
          -0.29872977734 -6.2278199196 -0.053440615535 3.4156041145 -15.424689293 0.17704850435
          0.64162677526 -13.549012184 -1.6921911083e-05 2.1729736328 -15.397596359 -0.35595947504
          -0.3232652545 -7.9496750832 0.11329016089 2.1684603691 -15.393988609 -0.1800288856
          -0.32513579726 -7.9964661598 0.054085552692 13.890414238 -18.264970779 0.60321247578
          0 0 0 -0.45811659098 -11.961332321 0.17960590124
          -0.25119012594 -4.5104379654 0.1463727355 5.1562519073 -17.363977432 -0.30578672886
          -0.24659763277 -4.5473380089 0.075377710164 11.691018105 -17.978122711 0.53081977367
          -0.10661059618 -0.91025531292 -0.091347001493 5.106139183 -17.354251862 -0.1769464463
          7.2170538902 -17.547523499 0.19035111368 -0.42832604051 -10.015069008 0.028549585491
          -0.20838841796 -3.171957016 -0.07069607079 0.63500237465 -13.577773094 0.19447496533
          2.1487219334 -15.381137848 -1.0639494576e-05 -0.33119219542 -8.0080223083 -1.8721351807e-05
          9.4742088318 -17.721071243 0.45669582486 -0.17197935283 -1.9438689947 -0.12129443139
          3.4211149216 -15.43879509 0.35017943382 -0.24716638029 -4.5573487282 -1.0295568245e-05
          -0.30208393931 -6.1851124763 -0.10092855245 4.989885807 -17.316867828 1.0802874613e-06
          14.898485184 -20.519760132 -0.60521972179 0 0 0
          -0.50825852156 -11.951920509 0.42285221815 2.1684634686 -15.393979073 0.18000763655
          0 0 0 12.584521294 -20.232435226 -0.53443431854
          -0.56748348475 -11.792563438 0.063721895218 -0.32513695955 -7.996465683 -0.054122339934
          -0.12946180999 -0.84931576252 0.12628249824 -0.19044953585 -13.814460754 -0.36686912179
          14.897332191 -20.572740555 -0.30236944556 7.2040762901 -17.492898941 0.37822401524
          12.582674026 -20.286066055 -0.26775291562 -0.092019565403 -0.87046384811 0.053141575307
          -0.43178576231 -9.9328069687 -0.043991174549 -0.58147358894 -11.916358948 -0.06954497844
          -0.21831515431 -3.1354238987 -0.13682600856 3.8566858768 -17.322893143 -0.34038686752
          -0.24660012126 -4.5473394394 -0.075398124754 0.59948557615 -13.566004753 0.33591589332
          -0.27096423507 -6.0702624321 0.15146550536 5.1061444283 -17.354242325 0.17694868147
          -0.19570824504 -13.819426537 -0.13872516155 -0.26946270466 -6.1057858467 0.080205418169
          3.880423069 -17.318246841 -0.15315891802 10.259745598 -19.968412399 -0.46509408951
          14.896788597 -20.590372086 3.159651169e-05 -0.19471074641 -1.8345017433 0.16792938113
          0 0 0 10.257388115 -20.027124405 -0.23303513229
          -0.1683921963 -1.8650273085 0.087513402104 12.582367897 -20.304655075 2.3802567739e-05
          0.87180918455 -15.326842308 -0.32739573717 -0.5003786087 -11.943416595 -2.4527971618e-05
          -0.18208475411 -13.819285393 -2.1273515813e-05 -0.34823492169 -9.8367938995 0.1125953868
          -0.090352721512 -0.87371557951 -1.3412644648e-06 0.86066424847 -15.340378761 -0.14336693287
          3.8968503475 -17.319950104 -4.860986337e-06 -0.35449615121 -9.8963041306 0.062702134252
          -0.26816526055 -6.1153454781 -1.2890081962e-05 2.1729798317 -15.397576332 0.35593831539
          10.25812912 -20.047800064 1.5976218492e-05 -0.32326936722 -7.9496774673 -0.11332493275
          -0.15784242749 -1.8733105659 -3.3608505419e-06 7.8898758888 -19.711614609 -0.37909942865
          14.897335052 -20.572725296 0.30243262649 0.84466660023 -15.354603767 -1.5395444279e-05
          -0.22894889116 -2.9903457165 0.1904951036 -0.25119647384 -4.5104427338 -0.14639265835
          -0.34443211555 -9.9229269028 -2.1139736418e-05 5.1562604904 -17.363956451 0.3057898581
          0 0 0 7.9041047096 -19.783039093 -0.19315072894
          -0.21525986493 -3.027150631 0.096855200827 12.582677841 -20.286050797 0.26780053973
          -0.58147406578 -11.916352272 0.06949608773 -0.19570869207 -13.819415092 0.13868197799
          -0.09202042222 -0.87046462297 -0.053144343197 3.8804271221 -17.318237305 0.1531496048
          -0.26946488023 -6.1057872772 -0.080230921507 10.257392883 -20.027109146 0.23306716979
          7.9234910011 -19.81363678 8.3561017163e-06 2.6233792305 -17.311040878 -0.33627799153
          -0.25943726301 -7.7999162674 0.15466314554 -0.21355505288 -3.0382318497 -5.6270905588e-06
          -0.16839393973 -1.8650285006 -0.08752027154 -0.25780165195 -7.8349995613 0.084584377706
          0.86066639423 -15.340368271 0.14333623648 2.6047465801 -17.284025192 -0.14679454267