<?xml version="1.0"?>
<VTKFile type="UnstructuredGrid" version="0.1" byte_order="LittleEndian" header_type="UInt32" compressor="vtkZLibDataCompressor">
  <UnstructuredGrid>
    <Piece NumberOfPoints="6405" NumberOfCells="4800">
      <PointData>
        <DataArray type="Float32" Name="DISPLACEMENT" NumberOfComponents="3" ComponentName0="X-DISPLACEMENT" ComponentName1="Y-DISPLACEMENT" ComponentName2="Z-DISPLACEMENT" format="ascii" RangeMin="0" RangeMax="248.45741076">
          0 0 0 0 0 0
          2.0011937618 -1.2229918242 -0.92703157663 0 0 0
          1.2934621572 -0.72179061174 -0.71893680096 0 0 0
          1.8269264698 -1.3493930101 -0.36881312728 1.1252740622 -0.82622271776 -0.2932792604
          0 0 0 3.5922553539 -2.2375895977 -0.95189785957
          0 0 0 3.5407819748 -2.3872280121 -0.49151775241
          2.597723484 -1.8339130878 -0.79301273823 0 0 0
          0 0 0 1.8333977461 -1.3925611973 1.8186643729e-06
          0.94254940748 -0.48880273104 -0.55410075188 1.1207706928 -0.84753251076 8.434453207e-07
          2.5425379276 -1.9536836147 -0.40505197644 0.81002557278 -0.58577758074 -0.22453302145
          3.5010774136 -2.4295105934 3.7789741327e-06 1.8918569088 -1.494780302 -0.62033748627
          0 0 0 2.5079879761 -1.9933390617 1.9525509742e-06
          1.8349910975 -1.6065458059 -0.31834051013 0 0 0
          5.0412750244 -3.5407149792 -0.89442414045 0 0 0
          0.80385494232 -0.60408043861 -1.5848212342e-07 0 0 0
          0 0 0 1.826925993 -1.349391222 0.36881667376
          3.8257312775 -3.151910305 -0.75788867474 5.05641222 -3.6501290798 -0.45624673367
          0.67749798298 -0.32208096981 -0.37550646067 1.1252744198 -0.82622087002 0.29328092933
          3.8383831978 -3.2551963329 -0.38629963994 0.59328430891 -0.42832586169 -0.15668563545
          1.8048480749 -1.6368041039 3.5870368897e-09 3.5407817364 -2.3872244358 0.4915253818
          0 0 0 0 0 0
          1.2940839529 -1.2746354342 -0.43213689327 2.8552241325 -2.844094038 -0.6227350235
          5.0438566208 -3.6899440289 6.0345000747e-06 2.5425388813 -1.9536798 0.40505596995
          2.8478016853 -2.9425282478 -0.31624272466 0.8100259304 -0.58577543497 0.22453276813
          3.829685688 -3.2898182869 3.3409080515e-06 1.2363448143 -1.3844003677 -0.22288288176
          0.59716266394 -0.44367200136 -1.5310378103e-06 0 0 0
          6.3895440102 -5.0215506554 -0.80251336098 0 0 0
          4.9887180328 -4.6659288406 -0.69959706068 1.8349920511 -1.6065417528 0.31834056973
          6.4258041382 -5.1021175385 -0.40625035763 2.0011944771 -1.2229886055 0.92703509331
          0 0 0 0 0 0
          1.2150303125 -1.4120548964 -2.1384323645e-06 2.8381433487 -2.9729547501 5.4374964975e-07
          0.24452205002 -0.23547278345 -0.16290135682 5.0210466385 -4.7457370758 -0.35289040208
          1.2934638262 -0.72178679705 0.71893870831 1.9741442204 -2.6388139725 -0.48432776332
          0 0 0 5.0564126968 -3.6501235962 0.45625886321
          0.19847048819 -0.36648672819 -0.083726935089 1.9457528591 -2.7279069424 -0.24684561789
          3.8383846283 -3.2551908493 0.38630640507 0.59328502417 -0.42832353711 0.15668277442
          3.7964012623 -4.3805813789 -0.59795457125 0.46170008183 -1.145408988 -0.25478738546
          6.426846981 -5.1304111481 8.4934517872e-06 3.5922570229 -2.2375822067 0.95190572739
          0 0 0 0 0 0
          3.8102250099 -4.4584336281 -0.30148670077 2.5977261066 -1.8339054585 0.79301691055
          5.0259647369 -4.7735080719 5.0030193961e-06 0.40364590287 -1.2530347109 -0.13731856644
          0.94255006313 -0.48879829049 0.55410063267 0.21324591339 -0.39984720945 -3.3375467865e-06
          1.9358687401 -2.7563085556 -2.4545709039e-06 2.8478028774 -2.9425225258 0.31624385715
          1.2363458872 -1.3843960762 0.22287864983 3.8111326694 -4.4849238396 1.4186349517e-06
          1.8918586969 -1.4947721958 0.62033778429 0.39474904537 -1.2834197283 -4.3641161938e-06
          2.6898725033 -4.1808052063 -0.50133895874 6.4258050919 -5.1021103859 0.40626743436
          5.0412778854 -3.5407042503 0.89443653822 0 0 0
          7.6265583038 -6.6399774551 -0.72450745106 0 0 0
          0 0 0 0.93757772446 -2.4965248108 -0.39170983434
          2.687391758 -4.2540488243 -0.25335168839 7.662545681 -6.6995582581 -0.36418002844
          6.0803351402 -6.3101062775 -0.64668571949 5.0210490227 -4.7457299232 0.35290047526
          0.025847669691 -0.41715508699 -0.18031083047 0 0 0
          3.8257350922 -3.1518990993 0.75789564848 0.67749798298 -0.32207608223 0.37550380826
          0.89741885662 -2.5698535442 -0.18947909772 0.19847229123 -0.36648413539 0.083720721304
          -0.052382621914 -0.46536615491 -0.066901706159 1.9457542896 -2.7279007435 0.24684074521
          6.1131224632 -6.3719143867 -0.32398420572 3.8102269173 -4.4584259987 0.3014895916
          2.6847603321 -4.2809739113 -2.3794193567e-06 7.6688046455 -6.7207655907 1.1145334611e-05
          0.1702439934 -1.351039052 -0.32995000482 0.40364816785 -1.2530303001 0.13730978966
          0 0 0 4.7095808983 -6.0376200676 -0.56733030081
          1.2940847874 -1.2746267319 0.43213281035 2.8552267551 -2.8440823555 0.6227363348
          0.8869356513 -2.5962979794 -5.7149018176e-06 6.1216144562 -6.393474102 6.9273796726e-06
          -0.036122448742 -0.5246155858 -6.839420621e-06 0.14985825121 -1.3799129725 -0.13086819649
          4.7293610573 -6.1000318527 -0.28463172913 6.3895478249 -5.0215363503 0.80253070593
          0 0 0 1.6090317965 -4.0243115425 -0.42397040129
          4.9887228012 -4.6659140587 0.69960731268 0.15524169803 -1.4277348518 -9.0558842203e-06
          1.5958013535 -4.0961103439 -0.20524565876 4.7344841957 -6.1217479706 2.6141012768e-06
          0.2445229739 -0.23546738923 0.16289575398 2.6873936653 -4.2540407181 0.25334694982
          3.4399974346 -5.8223385811 -0.48734718561 7.6625475883 -6.699549675 0.36420240998
          0.4062948525 -2.5607931614 -0.31688645482 1.9741460085 -2.6388015747 0.48432305455
          0 0 0 0.89742147923 -2.5698473454 0.18946765363
          3.4473624229 -5.8860478401 -0.24489343166 -0.052379634231 -0.4653635025 0.066888689995
          0.42171660066 -2.6306858063 -0.14842450619 6.1131253242 -6.3719058037 0.32399815321
          3.796405077 -4.380566597 0.59795761108 0.46170207858 -1.1453999281 0.25477871299
          8.7651863098 -8.3538007736 -0.66621553898 0 0 0
          1.5817368031 -4.117893219 -6.5837593866e-06 7.1044764519 -8.0467500687 -0.60419410467
          8.7942218781 -8.4010848999 -0.33394163847 0 0 0
          0.058460816741 -0.64768886566 -0.11457191408 7.1315097809 -8.0968732834 -0.30172288418
          3.4469773769 -5.9075331688 -1.8896964775e-06 0.02800928615 -0.68926781416 -0.042167086154
          0.14986144006 -1.3799083233 0.1308504343 0.41199839115 -2.6559104919 -1.0660244698e-05
          4.7293634415 -6.1000227928 0.28463700414 5.5880174637 -7.7911019325 -0.53897088766
          -0.022460192442 -1.5509258509 -0.12023331225 8.8011846542 -8.4178800583 1.3997072529e-05
          0 0 0 -0.057968944311 -1.6102820635 -0.084107466042
          5.6068663597 -7.8424868584 -0.26928114891 7.1395688057 -8.1143798828 9.109659004e-06
          0.019263599068 -0.70247632265 -5.4725514929e-06 2.6898753643 -4.1807894707 0.50133430958
          2.2521259785 -5.6439442635 -0.39467069507 7.626563549 -6.639960289 0.72453004122
          0 0 0 0.64713048935 -3.9445414543 -0.24813486636
          1.5958039761 -4.0961022377 0.20523245633 0.93758058548 -2.4965119362 0.39169844985
          6.0803413391 -6.3100891113 0.6466999054 0.025848286226 -0.41714718938 0.18029801548
          0.65076488256 -4.0410375595 -0.14114718139 2.2476153374 -5.7144880295 -0.19899901748
          3.4473648071 -5.8860387802 0.24488967657 0.42171981931 -2.6306791306 0.14840328693
          5.6124882698 -7.86013937 4.1183666326e-06 -0.060285847634 -1.6226303577 -1.0739690879e-05
          4.1807341576 -7.5959582329 -0.4718593657 -0.22533690929 -2.7485871315 -0.24078604579
          0.17024619877 -1.3510274887 0.32993206382 8.7942237854 -8.4010753632 0.33396968246
          4.7095861435 -6.0376024246 0.56733572483 0 0 0
          2.2442407608 -5.7339229584 -6.7109440351e-06 0.64896589518 -4.05818367 -1.144189082e-05
          4.189473629 -7.6465473175 -0.23492063582 7.1315126419 -8.0968637466 0.3017411828
          -0.2500923574 -2.8052299023 -0.10287733376 0.028009487316 -0.68926501274 0.042156469077
          1.6090353727 -4.0242948532 0.42395707965 4.1918945312 -7.662232399 -1.0258216889e-06
          5.6068692207 -7.842476368 0.26928946376 -0.057967696339 -1.6102776527 0.084085807204
          -0.23681744933 -2.8258152008 -1.6680593035e-05 9.8278579712 -10.138726234 -0.62712293863
          0 0 0 9.8488864899 -10.18046093 -0.31388404965
          3.4400017262 -5.8223199844 0.48734351993 8.068983078 -9.8502979279 -0.57213950157
          0.40629824996 -2.5607783794 0.31686496735 0.90859287977 -5.5139622688 -0.26322081685
          0.0058945734054 -0.79582536221 -0.048698991537 0.6507679224 -4.0410294533 0.1411242485
          2.2476177216 -5.7144784927 0.19898559153 0 0 0
          8.0890932083 -9.8944482803 -0.28515815735 0.89797687531 -5.597307682 -0.14414568245
          -0.015926098451 -0.8289372921 -0.019819967449 2.8404500484 -7.4638409615 -0.39708039165
          -0.041021615267 -4.1687269211 -0.29026430845 8.7651929855 -8.3537817001 0.66624385118
          0 0 0 7.1044836044 -8.0467300415 0.60421258211
          9.8551502228 -10.195131302 1.7070538888e-05 -0.093024246395 -4.1888585091 -0.11397448927
          2.8311758041 -7.5061154366 -0.2001978308 0.058456711471 -0.64768445492 0.11456168443
          6.4173207283 -9.6178970337 -0.5139516592 -0.057791922241 -1.785559535 -0.082217946649
          0 0 0 4.1894760132 -7.6465368271 0.23491862416
          -0.25008863211 -2.8052232265 0.10284419358 8.0952882767 -9.9094810486 1.1549186638e-05
          0.90942209959 -5.6205482483 -1.1765735508e-05 6.4339327812 -9.6620464325 -0.25539714098
          -0.078351207078 -1.8314765692 -0.03718964383 -0.017884282395 -0.83707022667 -5.1450788305e-06
          5.5880236626 -7.7910814285 0.53897941113 -0.022463822737 -1.5509185791 0.12021395564
          2.830262661 -7.5181422234 -6.3602187765e-06 -0.06438703835 -4.2314434052 -1.7707181541e-05
          2.2521297932 -5.64392519 0.39465728402 6.4383897781 -9.67664814 5.9081066865e-06
          -0.084967508912 -1.849011302 -1.1000635823e-05 0.64713448286 -3.9445240498 0.24811172485
          9.8488893509 -10.180450439 0.31391826272 4.8683724403 -9.4632616043 -0.45799145103
          0 0 0 -0.10654336959 -2.944316864 -0.10322724283
          4.8793668747 -9.5021390915 -0.22682976723 8.089097023 -9.8944368362 0.28518128395
          -0.015926541761 -0.82893544436 0.01981010288 0.89797985554 -5.5972981453 0.14412218332
          -0.1252836585 -3.0036804676 -0.055879194289 4.1807394028 -7.595937252 0.47185754776
          1.3426674604 -7.3485059738 -0.36139968038 2.8311786652 -7.5061049461 0.20018516481
          -0.22533358634 -2.7485702038 0.24075269699 -0.093020439148 -4.1888504028 0.11393946409
          0.20305548608 -5.7378110886 -0.39488720894 1.3113850355 -7.3777570724 -0.17061845958
          4.881257534 -9.5151100159 1.7331775837e-07 6.4339361191 -9.6620359421 0.25540903211
          -0.078352093697 -1.8314731121 0.037167951465 0.1743683666 -5.7187318802 -0.15130281448
          -0.13477505744 -3.0145890713 -1.6302088625e-05 10.842843056 -11.984270096 -0.60493677855
          0 0 0 -0.021379522979 -0.88709527254 -0.010719832033
          1.3038599491 -7.3884916306 -1.1814971913e-05 3.396944046 -9.3863611221 -0.41641029716
          8.9875001907 -11.705753326 -0.54920339584 9.8278646469 -10.1387043 0.62715733051
          0 0 0 0 0 0
          0.18879334629 -5.758409977 -1.833191709e-05 -0.21491234004 -4.2806391716 -0.10635966063
          10.85637188 -12.02604866 -0.30236160755 3.3986427784 -9.4126758575 -0.20631115139
          9.0013780594 -11.749206543 -0.27317744493 8.0689916611 -9.8502759933 0.57216280699
          -0.028392622247 -0.9126843214 -0.003256970318 0.90859717131 -5.5139427185 0.26319745183
          0.005889092572 -0.79582279921 0.04868882522 -0.2221146822 -4.3438920975 -0.11282729357
          4.8793702126 -9.5021276474 0.22683018446 -0.12528452277 -3.0036752224 0.055846679956
          7.1975026131 -11.488580704 -0.48890382051 2.8404548168 -7.4638199806 0.39706793427
          -0.041017517447 -4.1687078476 0.29022935033 0 0 0
          -0.072372078896 -1.9092307091 -0.021277943626 10.861503601 -12.040381432 2.039490937e-05
          -0.030292453244 -0.92025125027 -4.6468753681e-06 3.4001984596 -9.424612999 -5.6608128034e-06
          7.2102913857 -11.529623985 -0.24182090163 6.4173283577 -9.6178750992 0.51396375895
          9.0058202744 -11.763180733 1.4236283278e-05 -0.057798374444 -1.7855541706 0.082197010517
          -0.17827957869 -4.3595075607 -2.06113491e-05 -0.082075275481 -1.9475575686 -0.0099269812927
          1.311388731 -7.377746582 0.17059485614 0.17437262833 -5.7187223434 0.15126655996
          0.53931158781 -7.4980335236 -0.4114985764 7.2116503716 -11.540762901 7.943494893e-06
          -0.085257664323 -1.9600658417 -1.0276781722e-05 0.56086087227 -7.5028533936 -0.17904768884
          5.5023107529 -11.3578825 -0.43070310354 0 0 0
          -0.14725455642 -3.0910081863 -0.032458998263 10.856374741 -12.026036263 0.30240243673
          -0.028393648565 -0.91268330812 0.0032478845678 3.3986458778 -9.4126644135 0.20629990101
          5.5120792389 -11.392118454 -0.21053923666 4.8683786392 -9.4632387161 0.45799207687
          9.0013818741 -11.749194145 0.27320593596 1.9924747944 -9.3213634491 -0.41840547323
          -0.4626904428 -5.986533165 -0.37089180946 -0.10654944181 -2.9443085194 0.10319723189
          -0.15722666681 -3.13879776 -0.01875199005 -0.22211447358 -4.3438854218 0.11278664321
          1.9658265114 -9.3327560425 -0.19555960596 -0.43367761374 -5.9802026749 -0.17796888947
          0.55566561222 -7.5187783241 -1.8612829081e-05 1.3426730633 -7.3484845161 0.36137634516
          7.2102952003 -11.529611588 0.24183686078 0.20306040347 -5.7377901077 0.39485105872
          5.5077729225 -11.402603149 1.593549996e-06 -0.082077518106 -1.9475556612 0.0099065285176
          -0.15619666874 -3.1557271481 -1.6035204681e-05 1.9348973036 -9.3312149048 -1.1673652807e-05
          -0.10050750524 -5.8702893257 -2.3807202524e-05 -0.24440945685 -4.4787168503 -0.062907338142
          3.9369888306 -11.296684265 -0.39690616727 10.842850685 -11.984246254 0.60497772694
          0 0 0 0.56086498499 -7.5028424263 0.17901062965
          -0.02138566412 -0.88709414005 0.010709975846 -0.24874840677 -4.5301485062 -0.032717842609
          3.3969497681 -9.3863382339 0.4163993001 8.9875087738 -11.705728531 0.54923200607
          3.9440083504 -11.321842194 -0.19406278431 11.837735176 -13.897515297 -0.59650874138
          0 0 0 -0.21491642296 -4.2806282043 0.10632179677
          11.844866753 -13.942983627 -0.29761373997 -0.045392099768 -0.92951023579 0.022234369069
          9.8814992905 -13.619305611 -0.53424167633 5.5120830536 -11.39210701 0.21054258943
          0 0 0 -0.15722920001 -3.138794899 0.018720526248
          9.8895349503 -13.665908813 -0.26579686999 -0.041187442839 -0.95132136345 0.0096526155248
          1.9658305645 -9.3327445984 0.19553624094 -0.43367576599 -5.9801940918 0.17791990936
          7.1975107193 -11.488555908 0.48892000318 -0.23094235361 -4.5258698463 -2.1196461603e-05
          3.937469244 -11.332947731 -4.6866562116e-06 -0.072380907834 -1.9092284441 0.021258046851
          0.82141816616 -9.3182592392 -0.31485173106 -0.1012872532 -1.9765424728 0.024035731331
          7.9457302094 -13.395168304 -0.46785393357 -0.26369798183 -7.7669148445 -0.39854949713
          11.848579407 -13.958011627 2.3991551643e-05 0 0 0
          0.84034055471 -9.360534668 -0.17998377979 9.8925590515 -13.680520058 1.7141641365e-05
          -0.041466377676 -0.95755332708 -4.0942559281e-06 7.9551610947 -13.437535286 -0.23001381755
          -0.1004813239 -2.0090167522 0.013145949692 -0.25537341833 -7.7718133926 -0.17836533487
          0.53931719065 -7.4980101585 0.41146123409 0.849835217 -9.3594045639 -1.8208291294e-05
          -0.30303952098 -6.0432686806 -0.063270911574 -0.24875029922 -4.5301442146 0.032676178962
          2.5505354404 -11.249898911 -0.37280899286 7.9565167427 -13.446149826 1.0167850633e-05
          5.5023179054 -11.357857704 0.43070676923 3.9440121651 -11.321829796 0.19405353069
          -0.22914285958 -7.7671332359 -2.5837132853e-05 -0.099901631474 -2.0202093124 -9.3681383078e-06
          -0.14726354182 -3.0910046101 0.032428950071 11.844869614 -13.942970276 0.29766172171
          6.0931344032 -13.271484375 -0.39465841651 -0.30387705564 -6.1178851128 -0.059848364443
          -0.16563272476 -3.1769418716 0.022577479482 2.5523409843 -11.269603729 -0.18729893863
          1.9924813509 -9.3213396072 0.41838210821 -0.46268936992 -5.986512661 0.37084573507
          0 0 0 -0.16680462658 -3.2170546055 0.012498475611
          9.889538765 -13.665895462 0.26583114266 -0.041188783944 -0.95132106543 -0.0096607143059
          6.0807409286 -13.299013138 -0.19347630441 -0.34149411321 -6.1077628136 -2.571062214e-05
          2.5433795452 -11.274908066 -1.0987289897e-05 0.8403441906 -9.3605222702 0.17994733155
          6.0558576584 -13.298611641 3.2260336411e-06 -0.16594819725 -3.228723526 -1.4967037714e-05
          7.9551653862 -13.437521935 0.23003424704 -0.10048414767 -2.0090162754 -0.013164673001
          -0.25536924601 -7.7718029022 0.17831365764 -0.24441652 -4.4787106514 0.062867939472
          3.9369955063 -11.29665947 0.39689719677 4.4367547035 -13.233984947 -0.35507437587
          11.837742805 -13.897488594 0.59655666351 0 0 0
          -0.22796325386 -4.5521512032 0.024385888129 -0.045398443937 -0.929510355 -0.022243490443
          9.8815078735 -13.619278908 0.53427600861 -0.30387765169 -6.1178789139 0.059797950089
          2.552344799 -11.269591331 0.18727701902 4.4244027138 -13.252102852 -0.16908217967
          0.011803648435 -9.6004753113 -0.40476754308 -0.23238861561 -4.6007385254 0.010199695826
          -0.16680800915 -3.2170536518 -0.012528079562 6.080745697 -13.29900074 0.19348290563
          -0.0041159898974 -9.5765953064 -0.16620083153 1.11074543 -11.173423767 -0.33389464021
          -0.43414837122 -7.739013195 -0.035535752773 12.832014084 -15.899999619 -0.59642374516
          0 0 0 10.767615318 -15.617715836 -0.52843570709
          0.82142430544 -9.3182353973 0.3148150444 -0.10129670799 -1.976542592 -0.02405433543
          7.9457387924 -13.395141602 0.46787458658 -0.43651744723 -7.8342843056 -0.11243248731
          1.1086392403 -11.196246147 -0.1626984328 -0.26369211078 -7.766890049 0.39849764109
          12.834371567 -15.949436188 -0.29734131694 0 0 0
          -0.23712678254 -4.6155972481 -2.0289538952e-05 4.3963770866 -13.258778572 -3.517425057e-06
          -0.069453038275 -0.93752777576 0.05115506798 10.770539284 -15.668092728 -0.26340812445
          -0.055023510009 -0.95751196146 0.021356737241 0.032610580325 -9.6074771881 -2.5287223252e-05
          8.6994466782 -15.375013351 -0.45625531673 -0.35572114587 -7.8660407066 -2.8997110348e-05
          1.1165971756 -11.209791183 -1.7440786905e-05 12.836461067 -15.965557098 2.7850555853e-05
          0 0 0 -0.12484862655 -1.9865136147 0.065435506403
          8.7047433853 -15.423645973 -0.22584328055 10.772289276 -15.684041977 2.01996736e-05
          -0.30304417014 -6.043258667 0.063223697245 2.5505423546 -11.249874115 0.37278714776
          -0.054231707007 -0.96314668655 -3.5277425923e-06 -0.11548412591 -2.0160913467 0.033936105669
          6.0931429863 -13.271458626 0.39466550946 -0.16564291716 -3.1769416332 -0.022606052458
          -0.29844900966 -6.108382225 0.025242142379 2.9980690479 -13.240718842 -0.35230112076
          -0.23239165545 -4.6007370949 -0.010239647701 4.4244074821 -13.2520895 0.16907532513
          -0.30609482527 -6.1675868034 0.008970332332 3.0002782345 -13.240624428 -0.16853234172
          -0.0041122040711 -9.5765829086 0.166150406 8.7081565857 -15.437259674 1.2475082258e-05
          -0.11206239462 -2.0256447792 -8.2791184468e-06 6.6229071617 -15.210934639 -0.38431641459
          -0.43651631474 -7.8342766762 0.11237519979 1.1086429358 -11.196233749 0.1626636833
          12.834374428 -15.949420929 0.29739695787 0 0 0
          -0.17254061997 -3.18161273 0.073726467788 6.6051926613 -15.240242004 -0.19080105424
          10.770543098 -15.668078423 0.26344850659 -0.16820938885 -3.2180902958 0.038178090006
          -0.29854777455 -6.1900587082 -2.5043182177e-05 2.9983830452 -13.243498802 -9.9925682662e-06
          -0.055024940521 -0.95751225948 -0.021363787353 8.7047472 -15.423631668 0.2258683145
          6.5802054405 -15.236761093 5.0768690016e-06 -0.16729871929 -3.2299938202 -1.3456457964e-05
          4.4367623329 -13.233959198 0.35506805778 0.29108166695 -11.419567108 -0.43771255016
          -0.11548710614 -2.0160918236 -0.033952750266 -0.22797256708 -4.5521497726 -0.024423938245
          -0.79707884789 -9.8680963516 -0.4317933619 0.31018936634 -11.40004158 -0.16802491248
          0.011810062453 -9.6004495621 0.40471714735 -0.75759851933 -9.8343420029 -0.21640220284
          -0.30609688163 -6.1675839424 -0.0090194987133 3.0002822876 -13.24061203 0.16851253808
          1.1107521057 -11.173398972 0.33386024833 -0.43415060639 -7.7390012741 0.035483110696
          -0.21434935927 -4.549366951 0.078643336892 4.8552927971 -15.195456505 -0.32945489883
          12.832021713 -15.899970055 0.59647923708 0 0 0
          10.767623901 -15.617686272 0.52847605944 -0.21326868236 -4.5907058716 0.041292317212
          0.30647441745 -11.422516823 -2.4104914701e-05 -0.39445057511 -7.8771495819 -0.0071880542673
          1.659668088 -13.24270916 -0.38956582546 4.7987380028 -15.190979004 -0.16369575262
          -0.069459095597 -0.93752890825 -0.051163256168 -0.27092528343 -9.6140232086 -3.0562860047e-05
          6.6051979065 -15.240228653 0.19081129134 -0.16821305454 -3.2180907726 -0.038204777986
          1.6085407734 -13.21218586 -0.17585369945 -0.39011794329 -7.9365053177 -0.0034837794956
          8.6994552612 -15.374984741 0.4562805593 -0.21249367297 -4.6051750183 -1.8455846657e-05
          4.7119998932 -15.171915054 -2.1702012418e-06 -0.12485788763 -1.9865154028 -0.065452285111
          1.5442973375 -13.178131104 -1.6209192836e-05 13.830630302 -18.012584686 -0.59881663322
          0 0 0 -0.3628025949 -7.9251847267 -2.898209641e-05
          13.830360413 -18.06363678 -0.29878687859 0 0 0
          0.31019300222 -11.400029182 0.16797687113 11.655599594 -17.727535248 -0.52968764305
          -0.29845631123 -6.1083798409 -0.02528850548 2.9980762005 -13.240694046 0.35228177905
          -0.091172881424 -0.91339790821 0.079250529408 -0.75759619474 -9.8343296051 0.21633809805
          11.655330658 -17.779428482 -0.2646958828 -0.067059203982 -0.93295413256 0.033084079623
          6.6229166985 -15.210907936 0.38432708383 13.830848694 -18.080432892 3.1905201467e-05
          -0.21327222884 -4.5907058716 -0.041328754276 9.4665307999 -17.471969604 -0.45902988315
          -0.14407329261 -1.938393712 0.10649051517 4.7987437248 -15.190966606 0.1636916101
          0 0 0 3.4332683086 -15.195937157 -0.35073632002
          -0.2471858263 -6.1060009003 0.079863846302 -0.17255094647 -3.1816151142 -0.073752515018
          -0.12700296938 -1.9672119617 0.054387446493 9.4662981033 -17.526626587 -0.22968587279
          11.6561203 -17.796684265 2.3286924261e-05 1.6085454226 -13.212173462 0.17582134902
          -0.24709290266 -6.1495013237 0.042012248188 3.4246752262 -15.184369087 -0.17707782984
          -0.39011859894 -7.9365010262 0.0034268849995 -0.065421141684 -0.9380351305 -2.9740322134e-06
          -0.55245995522 -11.69362545 -0.41136604548 9.467751503 -17.546121597 1.4689707314e-05
          0.29108849168 -11.419541359 0.43766453862 -0.12122689933 -1.9762105942 -7.0990204222e-06
          -0.24686038494 -6.1627402306 -2.2976599212e-05 -0.50353568792 -11.702665329 -0.1755027622
          3.4106678963 -15.176757812 -8.850372069e-06 -0.79707318544 -9.8680706024 0.43172928691
          13.83036232 -18.063619614 0.29885059595 7.2257189751 -17.247741699 -0.386249125
          -0.4257132709 -9.7554368973 0.015417186543 0 0 0
          -0.17670787871 -3.1114475727 0.12145099789 0.56366807222 -13.299238205 -0.331620574
          -0.16785894334 -3.1460666656 0.063102714717 7.2337431908 -17.2981987 -0.19466301799
          11.655333519 -17.779411316 0.26474240422 -0.41288402677 -9.838013649 -0.040472485125
          0.59805458784 -13.312968254 -0.18824653327 -0.067060574889 -0.93295490742 -0.033090073615
          -0.21435917914 -4.5493693352 -0.078678354621 4.855301857 -15.195429802 0.32945144176
          -0.48018792272 -11.670847893 -3.0168963349e-05 -0.3944543004 -7.8771443367 0.0071342461742
          1.6596763134 -13.242684364 0.38953375816 7.2434077263 -17.314426422 6.5259810071e-06
          9.4663009644 -17.526609421 0.22971528769 -0.46399357915 -9.8128194809 -3.1896062865e-05
          -0.12700581551 -1.9672131538 -0.054401777685 -0.16495855153 -3.156845808 -1.1636229829e-05
          -0.24709567428 -6.1495013237 -0.042057495564 3.4246797562 -15.184356689 0.17706029117
          0.60502105951 -13.288536072 -2.2259620891e-05 2.1657073498 -15.156412125 -0.35330703855
          -0.25783652067 -7.8414530754 0.084462486207 2.1594600677 -15.153151512 -0.17689800262
          -0.26152125001 -7.8887763023 0.03918152675 13.830636978 -18.012550354 0.59888005257
          0 0 0 -0.50353437662 -11.702651978 0.17544189095
          -0.19202849269 -4.4625935555 0.13006290793 5.1987266541 -17.126600266 -0.31807294488
          -0.18926879764 -4.4991374016 0.067152358592 11.655607224 -17.727500916 0.52973401546
          -0.091178365052 -0.91339969635 -0.079257652164 5.1426963806 -17.121002197 -0.18214665353
          7.2337474823 -17.298183441 0.19467622042 -0.41288375854 -9.8380060196 0.040409967303
          -0.16786250472 -3.1460680962 -0.06312584877 0.59805774689 -13.312955856 0.18820203841
          2.139172554 -15.139318466 -1.4895398635e-05 -0.26649674773 -7.9016437531 -2.6805730158e-05
          9.4665374756 -17.47193718 0.45905932784 -0.14408177137 -1.9383968115 -0.10650512576
          3.4332761765 -15.195912361 0.3507193625 -0.19030401111 -4.5083913803 -1.6017664166e-05
          -0.24719388783 -6.1060028076 -0.079907007515 5.0219902992 -17.085241318 -9.786526789e-07
          14.830105782 -20.24310112 -0.5995054245 0 0 0
          -0.55245369673 -11.693599701 0.41130492091 2.1594641209 -15.153140068 0.17686834931
          0 0 0 12.546093941 -19.958003998 -0.53287005424
          -0.59491693974 -11.595599174 0.043595276773 -0.26152288914 -7.8887753487 -0.039234202355
          -0.10768842697 -0.85477721691 0.10926956683 -0.24352128804 -13.543691635 -0.35866829753
          14.829372406 -20.29299736 -0.29953664541 7.2257266045 -17.247713089 0.38626286387
          12.54455471 -20.008508682 -0.26693990827 -0.074262700975 -0.87427973747 0.045402921736
          -0.42571505904 -9.7554283142 -0.015475021675 -0.59736526012 -11.717728615 -0.074879340827
          -0.17671747506 -3.1114516258 -0.12147378176 3.868039608 -17.086490631 -0.34303736687
          -0.18927231431 -4.4991393089 -0.067184068263 0.56367474794 -13.299213409 0.33157590032
          -0.19365857542 -5.9998664856 0.13038386405 5.1427025795 -17.120990753 0.18214473128
          -0.24940986931 -13.551462173 -0.13086369634 -0.19494210184 -6.0355820656 0.070150583982
          3.8915221691 -17.085338593 -0.15645611286 10.253002167 -19.695501328 -0.46775522828
          14.828830719 -20.309612274 3.6027908209e-05 -0.15656596422 -1.833147645 0.14783932269
          0 0 0 10.250443459 -19.750606537 -0.23458816111
          -0.13208903372 -1.8614346981 0.076317921281 12.544316292 -20.026046753 2.6238956707e-05
          0.84892231226 -15.086313248 -0.32003968954 -0.50820583105 -11.74521637 -3.2391053537e-05
          -0.23990026116 -13.550721169 -2.7619895263e-05 -0.27671143413 -9.7098875046 0.077713914216
          -0.071970932186 -0.8788459301 -2.4587868666e-06 0.83560431004 -15.101638794 -0.1387732774
          3.9096941948 -17.086021423 -8.2630713223e-06 -0.28003522754 -9.7693405151 0.047702640295
          -0.19357793033 -6.044728756 -1.9971746951e-05 2.1657149792 -15.156389236 0.35327765346
          10.250979424 -19.770347595 1.6547444829e-05 -0.25784212351 -7.8414545059 -0.084512300789
          -0.12396446615 -1.8691151142 -5.9237040659e-06 7.9121813774 -19.440927505 -0.38873338699
          14.82937336 -20.292978287 0.29960855842 0.81779152155 -15.115071297 -2.0624405806e-05
          -0.17509670556 -2.9699015617 0.17255404592 -0.19203776121 -4.4625983238 -0.13009363413
          -0.27093279362 -9.7956571579 -2.981236139e-05 5.198735714 -17.12657547 0.31807211041
          0 0 0 7.9261460304 -19.507009506 -0.19803526998
          -0.16241289675 -3.0035049915 0.087777197361 12.544556618 -20.008489609 0.26699227095
          -0.59736526012 -11.717720985 0.074814714491 -0.24940896034 -13.551449776 0.1308080256
          -0.074263900518 -0.87428075075 -0.045407902449 3.8915269375 -17.085329056 0.15644019842
          -0.19494505227 -6.0355839729 -0.070190019906 10.25044632 -19.750587463 0.23462121189
          7.9459671974 -19.535930634 7.2516927503e-06 2.6138763428 -17.074743271 -0.33217513561
          -0.16711132228 -7.7101950645 0.12704589963 -0.15830244124 -3.013645649 -9.6919993666e-06
          -0.13209152222 -1.861436367 -0.076329909265 -0.16566881537 -7.7475662231 0.070357352495
          0.83560782671 -15.10162735 0.13873235881 2.5940918922 -17.048599243 -0.14544528723
          -0.28003543615 -9.7693395615 -0.047760892659 5.5796861649 -19.158643723 -0.2939311862