<?xml version="1.0"?>
<VTKFile type="UnstructuredGrid" version="0.1" byte_order="LittleEndian" header_type="UInt32" compressor="vtkZLibDataCompressor">
  <UnstructuredGrid>
    <Piece NumberOfPoints="6405" NumberOfCells="4800">
      <PointData>
        <DataArray type="Float32" Name="DISPLACEMENT" NumberOfComponents="3" ComponentName0="X-DISPLACEMENT" ComponentName1="Y-DISPLACEMENT" ComponentName2="Z-DISPLACEMENT" format="ascii" RangeMin="0" RangeMax="337.91592306">
          0 0 0 0 0 0
          2.6782712936 -1.55243361 -1.2322379351 0 0 0
          1.55613482 -0.87127804756 -0.838106215 0 0 0
          2.4633071423 -1.7836588621 -0.48550456762 1.3531352282 -1.0734473467 -0.34108772874
          0 0 0 4.8650555611 -3.2164392471 -1.2542101145
          0 0 0 4.8042640686 -3.4819951057 -0.6385307312
          3.1369256973 -2.6890330315 -0.93147838116 0 0 0
          0 0 0 2.4783666134 -1.8508167267 -8.7045975761e-08
          0.85269778967 -0.56393796206 -0.48281523585 1.3449941874 -1.1096080542 -2.5411138083e-08
          3.0673179626 -2.9117286205 -0.47340524197 0.73484134674 -0.76526355743 -0.19592733681
          4.7524585724 -3.5540907383 -1.4875105592e-07 1.7369008064 -2.307046175 -0.58638900518
          0 0 0 3.0257508755 -2.9774610996 -3.8452888873e-08
          1.6470547915 -2.5159006119 -0.29952713847 0 0 0
          6.7950863838 -5.544614315 -1.1476002932 0 0 0
          0.73980045319 -0.79685646296 3.3992037629e-08 0 0 0
          0 0 0 2.4633071423 -1.7836589813 0.48550441861
          4.5996098518 -5.0670933723 -0.89898794889 6.8175315857 -5.7337203026 -0.58113157749
          -0.042881470174 -0.46242335439 -0.08028960228 1.3531352282 -1.0734474659 0.34108766913
          4.6094193459 -5.2438225746 -0.45616284013 -0.14383028448 -0.69286394119 -0.059597082436
          1.6144543886 -2.5724508762 6.7397436965e-08 4.8042640686 -3.4819953442 0.63853043318
          0 0 0 0 0 0
          0.10515656322 -2.1325659752 -0.26787689328 2.7115881443 -4.7397661209 -0.66121631861
          6.7957501411 -5.797413826 -1.9869459322e-07 3.0673179626 -2.9117288589 0.47340515256
          2.6632041931 -4.8967251778 -0.33563765883 0.73484134674 -0.76526367664 0.19592739642
          4.5964670181 -5.2988944054 -4.1149359475e-08 0.0043105296791 -2.3363835812 -0.1471825242
          -0.15914444625 -0.73709136248 1.0201524248e-07 0 0 0
          8.4950399399 -8.2358760834 -0.99129098654 0 0 0
          5.9723062515 -7.8186626434 -0.83564889431 1.6470549107 -2.5159008503 0.29952728748
          8.5442562103 -8.3572416306 -0.5016348958 2.6782712936 -1.5524338484 1.2322378159
          0 0 0 0 0 0
          -0.01480695419 -2.395581007 1.7606362235e-07 2.6461780071 -4.9453086853 1.1214847717e-07
          -0.83386540413 -0.71315348148 0.11019563675 6.0089292526 -7.9347887039 -0.4202902019
          1.55613482 -0.87127828598 0.8381061554 0.61678427458 -4.535469532 -0.46721741557
          0 0 0 6.8175320625 -5.7337207794 0.58113116026
          -1.0095854998 -0.87854707241 0.035906307399 0.54128456116 -4.6693429947 -0.23496717215
          4.6094193459 -5.2438230515 0.45616278052 -0.14383034408 -0.6928640604 0.059597272426
          3.7276468277 -7.5242772102 -0.69026046991 -1.0002068281 -2.3635656834 -0.27582934499
          8.539557457 -8.3988008499 -2.3316060549e-07 4.8650555611 -3.216439724 1.2542098761
          0 0 0 0 0 0
          3.7153501511 -7.6217498779 -0.34841185808 3.1369256973 -2.6890332699 0.93147832155
          6.0125870705 -7.9735040665 -3.5263514775e-08 -1.1325247288 -2.4472777843 -0.09957280755
          0.85269778967 -0.56393820047 0.48281532526 -1.0596112013 -0.94598853588 2.1789635696e-07
          0.52830916643 -4.7143087387 2.7431644867e-07 2.6632041931 -4.8967251778 0.33563789725
          0.0043104998767 -2.3363838196 0.14718288183 3.7105884552 -7.6559934616 1.6058365304e-07
          1.7369008064 -2.3070466518 0.586389184 -1.1367266178 -2.5190987587 3.4355852563e-07
          1.4271148443 -7.3176617622 -0.60084366798 8.5442562103 -8.3572416306 0.50163447857
          6.7950863838 -5.5446147919 1.1475999355 0 0 0
          9.979631424 -11.117481232 -0.86197507381 0 0 0
          0 0 0 -0.71953743696 -4.6787457466 -0.48247876763
          1.3854652643 -7.3869557381 -0.29350265861 10.029475212 -11.189266205 -0.43419516087
          7.2521886826 -10.740003586 -0.77025312185 6.0089297295 -7.9347891808 0.4202901423
          -1.2262629271 -1.1505901814 0.22208489478 0 0 0
          4.5996098518 -5.0670938492 0.89898782969 -0.042881481349 -0.4624235332 0.080289773643
          -0.78968495131 -4.7202458382 -0.21432577074 -1.0095854998 -0.87854719162 -0.035905897617
          -1.3811223507 -1.2544132471 0.054181244224 0.54128456116 -4.6693429947 0.23496773839
          7.2941317558 -10.811347961 -0.38529598713 3.7153501511 -7.6217503548 0.34841218591
          1.3721678257 -7.4151396751 3.7178591583e-07 10.034036636 -11.215010643 -2.5488591859e-07
          -1.6471692324 -2.9434161186 -0.5805284977 -1.1325247288 -2.4472780228 0.099573507905
          0 0 0 4.7624239922 -10.454016685 -0.68468117714
          0.10515661538 -2.132566452 0.26787728071 2.7115881443 -4.7397670746 0.66121655703
          -0.79841381311 -4.7631707191 4.9080267672e-07 7.3037147522 -10.835851669 -2.5529383052e-08
          -1.3096712828 -1.3156753778 4.1993538957e-07 -1.7749681473 -2.8321244717 -0.23568674922
          4.7746081352 -10.512881279 -0.34315559268 8.4950399399 -8.235877037 0.9912905097
          0 0 0 -0.24239075184 -7.3336577415 -0.56539142132
          5.9723062515 -7.8186631203 0.8356487751 -1.7519956827 -2.8730039597 5.8262895664e-07
          -0.26619565487 -7.3651938438 -0.27718412876 4.7773160934 -10.534477234 2.0507749809e-07
          -0.83386528492 -0.71315377951 -0.11019521207 1.3854653835 -7.3869557381 0.29350340366
          2.3615665436 -10.241731644 -0.63370066881 10.029475212 -11.189266205 0.43419465423
          -1.334580183 -5.3655586243 -0.79497462511 0.61678439379 -4.5354704857 0.46721801162
          0 0 0 -0.7896848917 -4.720246315 0.21432675421
          2.3485965729 -10.279937744 -0.31215938926 -1.3811225891 -1.2544133663 -0.054180484265
          -1.3657064438 -5.2594871521 -0.34870511293 7.2941317558 -10.811347961 0.38529592752
          3.7276470661 -7.5242781639 0.69026082754 -1.0002065897 -2.3635661602 0.27583009005
          11.301779747 -14.080019951 -0.76863026619 0 0 0
          -0.2687151134 -7.3906087875 6.2704287984e-07 8.4500494003 -13.728482246 -0.71167004108
          11.343751907 -14.123970032 -0.38566285372 0 0 0
          -1.4846842289 -1.5769131184 0.4713947773 8.4881057739 -13.773932457 -0.35499325395
          2.3348782063 -10.294094086 4.5349494826e-07 -1.5445836782 -1.708460331 0.1120204553
          -1.7749682665 -2.8321247101 0.23568794131 -1.3330539465 -5.2901110649 7.8442667473e-07
          4.7746081352 -10.512881279 0.34315598011 5.7927746773 -13.440511703 -0.65449225903
          -2.4501743317 -3.4338738918 -0.74283283949 11.351769447 -14.139835358 -2.6972566047e-07
          0 0 0 -2.5420870781 -3.2932875156 -0.39724701643
          5.8152194023 -13.479763985 -0.326413095 8.4986457825 -13.78945446 -1.8155262183e-08
          -1.4398579597 -1.7364274263 5.9137272501e-07 1.4271150827 -7.3176627159 0.60084444284
          0.33100289106 -10.187997818 -0.58920758963 9.979631424 -11.117482185 0.86197453737
          0 0 0 -0.97724372149 -8.0277423859 -0.85666137934
          -0.26619562507 -7.3651943207 0.27718541026 -0.71953725815 -4.6787467003 0.48247981071
          7.2521886826 -10.740004539 0.77025312185 -1.2262628078 -1.150590539 -0.22208417952
          -0.96145558357 -7.9458932877 -0.38659891486 0.32899174094 -10.203370094 -0.29987323284
          2.3485968113 -10.279937744 0.31216031313 -1.3657064438 -5.2594876289 0.34870669246
          5.8207535744 -13.492898941 2.3738152777e-07 -2.5343306065 -3.2646756172 9.7746840311e-07
          3.2780721188 -13.226799011 -0.61005955935 -2.1326191425 -5.9876422882 -0.94375985861
          -1.6471691132 -2.9434168339 0.58052968979 11.343751907 -14.123970985 0.38566231728
          4.762424469 -10.454017639 0.68468159437 0 0 0
          0.3310393095 -10.215439796 7.2691665309e-07 -0.9182677269 -7.9810028076 9.3841526905e-07
          3.2831268311 -13.251382828 -0.30503413081 8.4881057739 -13.773933411 0.35499322414
          -2.1290638447 -5.874932766 -0.48854419589 -1.5445837975 -1.7084604502 -0.11201935261
          -0.24239060283 -7.3336586952 0.56539273262 3.275947094 -13.259233475 5.0927064876e-07
          5.8152194023 -13.479763985 0.32641357183 -2.5420873165 -3.2932877541 0.39724898338
          -2.1142406464 -5.849386692 1.1911998854e-06 12.512921333 -17.085355759 -0.70553636551
          0 0 0 12.545249939 -17.115997314 -0.35274714231
          2.361566782 -10.241732597 0.63370156288 9.5782499313 -16.752408981 -0.66405028105
          -1.334580183 -5.3655595779 0.79497617483 -0.62167912722 -10.810522079 -0.8607082963
          -1.5823390484 -1.9505633116 0.76076340675 -0.96145570278 -7.9458937645 0.38660076261
          0.32899177074 -10.203370094 0.29987469316 0 0 0
          9.608710289 -16.785032272 -0.33057793975 -0.58122998476 -10.736258507 -0.39875340462
          -1.5770970583 -2.1131522655 0.18969126046 0.94354653358 -13.143228531 -0.5892188549
          -1.7278536558 -8.7746553421 -0.9959641099 11.301779747 -14.080020905 0.76862972975
          0 0 0 8.4500494003 -13.7284832 0.71166998148
          12.553483009 -17.126693726 -2.8526881124e-07 -1.6865283251 -8.6899785995 -0.50704455376
          0.95682728291 -13.146472931 -0.30109372735 -1.4846839905 -1.576913476 -0.47139376402
          6.7941660881 -16.468910217 -0.61848431826 -3.2504487038 -3.9274482727 -0.83329361677
          0 0 0 3.2831268311 -13.251383781 0.30503514409
          -2.1290640831 -5.8749332428 0.48854655027 9.617934227 -16.795467377 -1.8558123926e-08
          -0.53322023153 -10.768825531 1.0374368458e-06 6.8164596558 -16.497421265 -0.30715218186
          -3.3550977707 -3.8201289177 -0.46339303255 -1.5356231928 -2.1573870182 5.8567553651e-07
          5.7927746773 -13.440513611 0.65449273586 -2.4501743317 -3.4338748455 0.74283480644
          0.96777778864 -13.157516479 7.9562812516e-07 -1.6526287794 -8.6817331314 1.3278466895e-06
          0.33100301027 -10.187998772 0.58920907974 6.8225140572 -16.505111694 2.5332028031e-07
          -3.3313031197 -3.7933380604 1.4370159533e-06 -0.97724372149 -8.0277433395 0.85666328669
          12.545249939 -17.115997314 0.35274657607 4.1375484467 -16.263698578 -0.57777577639
          0 0 0 -2.9180066586 -6.610730648 -1.0688263178
          4.1486172676 -16.277006149 -0.29044553638 9.608710289 -16.785032272 0.33057788014
          -1.5770974159 -2.113152504 -0.18969012797 -0.58123010397 -10.736258507 0.39875546098
          -2.9157280922 -6.5168423653 -0.55339699984 3.2780723572 -13.226800919 0.61006057262
          -0.23789423704 -13.652222633 -0.84477078915 0.95682734251 -13.146473885 0.30109530687
          -2.1326191425 -5.9876432419 0.94376224279 -1.6865284443 -8.6899785995 0.50704717636
          -1.3644138575 -11.601226807 -1.0068364143 -0.18203446269 -13.587539673 -0.39661416411
          4.1476068497 -16.280906677 5.3927067256e-07 6.8164596558 -16.497421265 0.3071526885
          -3.3550980091 -3.8201291561 0.46339592338 -1.3045539856 -11.532370567 -0.50536334515
          -2.8958821297 -6.4949383736 1.6423385887e-06 13.648897171 -20.127824783 -0.66360032558
          0 0 0 -1.2551614046 -2.6787827015 0.57974642515
          -0.12994290888 -13.62210083 1.095122343e-06 1.5929077864 -16.17241478 -0.58396482468
          10.648033142 -19.810171127 -0.62862080336 12.512921333 -17.085355759 0.70553576946
          0 0 0 0 0 0
          -1.2606048584 -11.536302567 1.3992762433e-06 -2.4342193604 -9.5302581787 -1.1056773663
          13.672207832 -20.152637482 -0.33099421859 1.611156106 -16.162260056 -0.29525667429
          10.670291901 -19.836452484 -0.31253832579 9.5782499313 -16.752410889 0.66405022144
          -1.3902347088 -2.6946165562 0.19257645309 -0.62167912722 -10.810523033 0.86071038246
          -1.58233881 -1.95056355 -0.76076233387 -2.4053623676 -9.456360817 -0.56288397312
          4.1486172676 -16.277006149 0.29044660926 -2.9157283306 -6.5168428421 0.55340027809
          7.7560901642 -19.536201477 -0.58881920576 0.94354665279 -13.143229485 0.58922046423
          -1.727853775 -8.7746562958 0.9959667325 0 0 0
          -3.0705986023 -4.7138996124 -0.50485426188 13.679028511 -20.160816193 -3.0771732895e-07
          -1.4185224771 -2.7693884373 8.4253144905e-07 1.6251519918 -16.170677185 8.3493199554e-07
          7.7737116814 -19.557970047 -0.29170078039 6.7941660881 -16.468912125 0.61848479509
          10.677448273 -19.844127655 -3.1455829941e-08 -3.2504487038 -3.9274492264 0.8332965374
          -2.3809008598 -9.4435787201 1.7399343051e-06 -3.3302571774 -4.7667927742 -0.35186806321
          -0.1820345521 -13.587539673 0.39661636949 -1.3045541048 -11.532370567 0.50536614656
          -1.0232177973 -14.420814514 -0.98880887032 7.7790851593 -19.562496185 2.5061069664e-07
          -3.2962713242 -4.7414550781 1.815871201e-06 -0.95716822147 -14.362998962 -0.48918446898
          4.9527425766 -19.33848381 -0.55465215445 0 0 0
          -3.4488332272 -7.3774037361 -1.2164994478 13.672207832 -20.152639389 0.33099362254
          -1.390234828 -2.6946167946 -0.19257484376 1.611156106 -16.162261963 0.29525834322
          4.9634370804 -19.343324661 -0.27877706289 4.1375484467 -16.263698578 0.57777684927
          10.670291901 -19.836454391 0.31253823638 0.22459049523 -16.580572128 -0.82217395306
          -2.0109367371 -12.462548256 -1.1048994064 -2.9180066586 -6.6107316017 1.0688296556
          -3.4490585327 -7.2865262032 -0.61427044868 -2.405362606 -9.4563617706 0.56288743019
          0.28314933181 -16.515605927 -0.38768935204 -1.9676570892 -12.402786255 -0.55511325598
          -0.91305631399 -14.371144295 1.4280443565e-06 -0.23789431155 -13.652223587 0.84477299452
          7.7737116814 -19.557971954 0.29170128703 -1.3644140959 -11.60122776 1.0068391562
          4.9655404091 -19.344869614 5.4354615031e-07 -3.3302574158 -4.7667927742 0.3518717289
          -3.4335565567 -7.2713561058 2.0966767806e-06 0.33122992516 -16.539608002 1.1215688573e-06
          -1.9426877499 -12.396578789 1.771214329e-06 -2.9034776688 -10.427433014 -1.2543590069
          2.2678892612 -19.242694855 -0.57939004898 13.648897171 -20.127824783 0.66359966993
          0 0 0 -0.95716845989 -14.362999916 0.48918733001
          -1.2551609278 -2.6787829399 -0.57974493504 -2.8818480968 -10.341081619 -0.62409961224
          1.5929079056 -16.17241478 0.58396649361 10.648033142 -19.810171127 0.62862074375
          2.286503315 -19.223070145 -0.29042902589 14.732327461 -23.209135056 -0.63604223728
          0 0 0 -2.4342195988 -9.5302591324 1.1056808233
          14.748052597 -23.231275558 -0.31695201993 -0.62782746553 -3.2449758053 0.26990610361
          11.671966553 -22.903337479 -0.60426020622 4.9634370804 -19.343324661 0.27877813578
          0 0 0 -3.4490587711 -7.28652668 0.61427462101
          11.687021255 -22.926218033 -0.3003218174 -0.68708860874 -3.2129147053 0.12663891912
          0.2831492722 -16.515605927 0.38769158721 -1.9676573277 -12.402786255 0.55511677265
          7.7560901642 -19.536201477 0.5888196826 -2.8683381081 -10.327980042 2.1369348815e-06
          2.3008720875 -19.229207993 8.4319049165e-07 -3.0705988407 -4.7139005661 0.50485789776
          -0.66397511959 -17.246286392 -0.9480278492 -1.4079810381 -5.65934515 0.1304064095
          8.6840200424 -22.637468338 -0.56849098206 -1.6639834642 -15.310792923 -1.0756770372
          14.753034592 -23.238254547 -3.4201460153e-07 0 0 0
          -0.60129743814 -17.190494537 -0.46664074063 11.692118645 -22.93245697 -5.9425168786e-08
          -0.73229444027 -3.2675526142 8.9338146836e-07 8.6963844299 -22.654998779 -0.2815644145
          -1.6949503422 -5.8456130028 -0.067521139979 -1.6175878048 -15.254713058 -0.53510499001
          -1.0232180357 -14.420815468 0.98881167173 -0.56370180845 -17.191492081 1.4283815517e-06
          -2.4193856716 -13.471213341 -1.2406352758 -2.8818483353 -10.341082573 0.62410390377
          0.76599442959 -19.567045212 -0.79462647438 8.7006111145 -22.658029556 2.2895781626e-07
          4.9527425766 -19.338485718 0.55465322733 2.286503315 -19.223070145 0.29043072462
          -1.5971400738 -15.246166229 1.7578136067e-06 -1.676951766 -5.8757634163 1.7553610405e-06
          -3.448833704 -7.3774051666 1.2165036201 14.748051643 -23.231275558 0.31695133448
          5.7483925819 -22.439167023 -0.54135602713 -2.3866503239 -13.392914772 -0.61223876476
          -3.1742517948 -8.4844589233 -1.3919430971 0.82174825668 -19.502882004 -0.37588191032
          0.22459042072 -16.580574036 0.82217615843 -2.0109372139 -12.46254921 1.1049029827
          0 0 0 -3.2075693607 -8.413236618 -0.70384138823
          11.687021255 -22.926218033 0.30032169819 -0.68708872795 -3.2129147053 -0.12663723528
          5.7570405006 -22.439464569 -0.27161470056 -2.3790369034 -13.377682686 2.1133250812e-06
          0.86282682419 -19.515678406 1.1231697954e-06 -0.60129767656 -17.190494537 0.46664357185
          5.7600803375 -22.439849854 5.2520584859e-07 -3.1981594563 -8.3881225586 2.5014344374e-06
          8.6963844299 -22.655000687 0.28156489134 -1.6949505806 -5.8456130028 0.067524641752
          -1.6175880432 -15.254713058 0.53510850668 -2.903478384 -10.427433968 1.2543631792
          2.2678892612 -19.242696762 0.57939171791 2.962277174 -22.332826614 -0.57483768463
          14.732327461 -23.209136963 0.63604152203 0 0 0
          -2.7094233036 -11.666974068 -1.529260397 -0.62782692909 -3.2449760437 -0.26990446448
          11.671965599 -22.903339386 0.60426008701 -2.3866508007 -13.392914772 0.61224299669
          0.82174819708 -19.502882004 0.3758841455 2.9798295498 -22.308534622 -0.2866076231
          -1.343126893 -18.068847656 -1.0287328959 -2.6447587013 -11.573822975 -0.73367780447
          -3.2075698376 -8.413236618 0.70384639502 5.7570405006 -22.439464569 0.27161574364
          -1.2993967533 -18.010053635 -0.50847351551 -0.2406821698 -20.104961395 -0.89825963974
          -2.0348293781 -16.352212906 -1.1980439425 15.779806137 -26.329404831 -0.61906456947
          0 0 0 12.663707733 -26.0313797 -0.58885967731
          -0.66397541761 -17.246286392 0.94803065062 -1.4079806805 -5.65934515 -0.13040328026
          8.6840200424 -22.637470245 0.56849139929 -1.9969803095 -16.279806137 -0.58763426542
          -0.18793335557 -20.046695709 -0.44150260091 -1.6639839411 -15.310793877 1.0756804943
          15.789478302 -26.350460052 -0.30850890279 0 0 0
          -2.643073082 -11.541534424 2.4658736493e-06 2.9931943417 -22.312553406 8.2537133039e-07
          -0.030500331894 -3.3857016563 0.02768785134 12.67305088 -26.052577972 -0.29279193282
          -0.025419272482 -3.3678219318 0.012514059432 -1.2870692015 -17.992868423 1.7169718376e-06
          9.5900325775 -25.769184113 -0.55595159531 -2.0005555153 -16.254314423 2.0448787836e-06
          -0.16196347773 -20.035545349 1.4071483747e-06 15.792864799 -26.356975555 -3.9157589526e-07
          0 0 0 -0.057160452008 -6.1453938484 0.03633435443
          9.598282814 -25.784589767 -0.27570047975 12.676430702 -26.058237076 -1.043718072e-07
          -2.4193861485 -13.471214294 1.2406394482 0.76599431038 -19.567047119 0.79462867975
          -0.026436636224 -3.4130275249 8.128856166e-07 -0.059170115739 -6.2285318375 0.018651396036
          5.7483921051 -22.439167023 0.54135704041 -3.1742525101 -8.484459877 1.3919479847
          -2.1674892902 -14.75848484 -1.4360843897 1.3694491386 -22.578475952 -0.76304960251
          -2.6447591782 -11.573823929 0.73368275166 2.9798295498 -22.308534622 0.28660926223
          -2.0788936615 -14.714670181 -0.68431305885 1.4198842049 -22.518117905 -0.36224398017
          -1.2993969917 -18.010055542 0.50847697258 9.6014413834 -25.787281036 1.8874219165e-07
          -0.060112021863 -6.3044261932 1.6230100073e-06 6.5436344147 -25.563266754 -0.5340166688
          -1.9969806671 -16.279806137 0.58763837814 -0.18793351948 -20.046697617 0.44150540233
          15.789478302 -26.350460052 0.30850812793 0 0 0
          -0.093382820487 -9.1975793839 0.017853641883 6.5505714417 -25.562614441 -0.26750186086
          12.67305088 -26.052577972 0.29279172421 -0.10511022061 -9.659160614 0.005144089926
          -2.0950782299 -14.666332245 2.3644618068e-06 1.4527468681 -22.521764755 1.1028971585e-06
          -0.025419345126 -3.3678219318 -0.012512525544 9.598282814 -25.784591675 0.27570083737
          6.5535626411 -25.562904358 4.8739372005e-07 -0.10575864464 -9.6274585724 2.3624363621e-06
          2.962277174 -22.332828522 0.57483929396 -0.9853413105 -20.795480728 -0.96904331446
          -0.059170339257 -6.2285318375 -0.018648220226 -2.7094242573 -11.666975021 1.5292652845
          -1.7023875713 -19.03861618 -1.1290252209 -0.94706660509 -20.737382889 -0.47918745875
          -1.3431273699 -18.068849564 1.0287362337 -1.6650474072 -18.978790283 -0.55229729414
          -2.0788941383 -14.714670181 0.68431782722 1.4198842049 -22.518117905 0.36224618554
          -0.24068243802 -20.104963303 0.89826238155 -2.034829855 -16.352212906 1.1980478764
          -0.11330723763 -12.856772423 -0.024510409683 3.6788861752 -25.440196991 -0.56938099861
          15.779806137 -26.329404831 0.61906379461 0 0 0
          12.663706779 -26.031381607 0.5888594389 -0.11290944368 -13.342267036 -0.011398645118
          -0.94544637203 -20.710367203 1.6605588371e-06 -1.7381685972 -17.589029312 -1.2715359926
          0.25929611921 -22.988096237 -0.84432089329 3.6952149868 -25.41554451 -0.28280007839
          -0.030499761924 -3.3857016563 -0.027686370537 -1.6832184792 -18.939357758 1.9543965664e-06
          6.5505714417 -25.562614441 0.26750281453 -0.10511072725 -9.659160614 -0.0051394454204
          0.30165806413 -22.933227539 -0.4158038497 -1.6462532282 -17.61223793 -0.60606837273
          9.5900316238 -25.76918602 0.55595195293 -0.11252622306 -13.243730545 2.4762057365e-06
          3.7069222927 -25.417984009 7.871688581e-07 -0.057160127908 -6.1453933716 -0.036331415176
          0.31544527411 -22.914491653 1.3663818663e-06 16.80563736 -29.488183975 -0.61062574387
          0 0 0 -1.6805187464 -17.54807663 2.2369677026e-06
          16.810667038 -29.509586334 -0.30445477366 0 0 0
          -0.94706690311 -20.737382889 0.47919073701 13.635739326 -29.194070816 -0.58028143644
          -2.1674902439 -14.758485794 1.4360890388 1.3694490194 -22.578477859 0.76305174828
          0.5708412528 -3.226000309 -0.22137050331 -1.6650477648 -18.978792191 0.55230122805
          13.640851974 -29.21518898 -0.28877666593 0.63912397623 -3.1883440018 -0.10646039248
          6.5436339378 -25.563268661 0.53401762247 16.812932968 -29.516225815 -4.5945054694e-07
          -0.11291005462 -13.342267036 0.011403554119 10.485266685 -28.931598663 -0.54854112864
          1.3230172396 -5.6422028542 -0.07637257129 3.6952149868 -25.41554451 0.28280162811
          0 0 0 2.0302259922 -25.602127075 -0.72719758749
          -0.1122405678 -15.787597656 -0.036663975567 -0.093383312225 -9.1975793839 -0.017849478871
          1.6074992418 -5.8152356148 0.091778211296 10.490974426 -28.946966171 -0.27253806591
          13.642959595 -29.220960617 -1.6769037359e-07 0.30165791512 -22.933229446 0.41580656171
          -0.10853754729 -16.267328262 -0.01689113304 2.0741007328 -25.548698425 -0.34684929252
          -1.646253705 -17.61223793 0.60607284307 0.68287265301 -3.2420208454 6.6515019626e-07
          -1.3474676609 -21.603752136 -1.0309619904 10.493382454 -28.950201035 1.3013206512e-07
          -0.98534178734 -20.795480728 0.96904659271 1.5906559229 -5.8467588425 1.3260222431e-06
          -0.10807368904 -16.166399002 2.3781951768e-06 -1.3145183325 -21.574367523 -0.50694078207
          2.0978820324 -25.54564476 1.0639670336e-06 -1.7023882866 -19.03861618 1.1290290356
          16.810667038 -29.509586334 0.30445384979 7.3472819328 -28.714220047 -0.52894568443
          -1.3947151899 -20.101140976 -1.0696977377 0 0 0
          3.0641818047 -8.4420309067 1.4382814169 -0.5565225482 -23.519205093 -0.89740502834
          3.1004920006 -8.3626737595 0.72888624668 7.3535013199 -28.715543747 -0.26467931271
          13.640851974 -29.21518898 0.2887763381 -1.3206710815 -20.192258835 -0.51323962212
          -0.52384895086 -23.475458145 -0.44613999128 0.63912391663 -3.1883440018 0.10646165907
          -0.11330828071 -12.856772423 0.024515071884 3.6788859367 -25.440198898 0.56938254833
          -1.3466180563 -21.529382706 1.8574843352e-06 -1.7381695509 -17.589031219 1.2715404034
          0.25929582119 -22.988098145 0.8443235755 7.35617733 -28.716739655 4.3184442688e-07
          10.490974426 -28.946966171 0.27253833413 -1.3708168268 -20.122509003 2.1052592274e-06
          1.6074990034 -5.8152351379 -0.091775581241 3.092135191 -8.3336725235 1.7450493033e-06
          -0.10853813589 -16.267328262 0.016895867884 2.0741007328 -25.548698425 0.34685140848
          -0.53285980225 -23.446592331 1.5911800801e-06 0.8296045661 -25.877445221 -0.78504931927
          -0.11422227323 -18.421352386 -0.04212693125 0.86291497946 -25.832614899 -0.3887630403
          -0.10946910083 -18.875669479 -0.019700834528 16.80563736 -29.488185883 0.61062479019
          0 0 0 -1.3145186901 -21.574367523 0.50694447756
          2.603458643 -11.66132164 1.5857435465 4.4216575623 -28.570901871 -0.56202858686
          2.5310106277 -11.562858582 0.76132506132 13.635738373 -29.194072723 0.58028101921
          0.57084172964 -3.2260000706 0.221371755 4.4376106262 -28.549217224 -0.27830594778
          7.353500843 -28.715543747 0.26468014717 -1.3206715584 -20.192258835 0.51324385405
          3.1004917622 -8.3626728058 -0.72888278961 -0.52384918928 -23.475458145 0.44614315033
          0.8654665947 -25.811445236 1.3119848745e-06 -0.10964760929 -18.790039062 2.2559422632e-06
          10.485266685 -28.931600571 0.54854136705 1.3230175972 -5.6422023773 0.076374985278
          2.0302257538 -25.602127075 0.72719961405 2.5304119587 -11.525510788 1.8531388832e-06
          -0.11224160343 -15.787597656 0.036668550223 4.4476618767 -28.550987244 7.3324690675e-07
          17.822414398 -32.687084198 -0.60928291082 0 0 0
          -1.347468257 -21.603752136 1.0309656858 0.86291486025 -25.832616806 0.38876563311
          0 0 0 14.597852707 -32.393810272 -0.57660835981
          -1.0680634975 -22.403692245 -0.86048102379 -0.10946965963 -18.875669479 0.019705330953
          1.2195286751 -2.626881361 -0.54117202759 -0.92928081751 -24.122667313 -0.9076769352
          17.824068069 -32.710514069 -0.30397343636 7.347281456 -28.714220047 0.5289465189
          14.600073814 -32.416664124 -0.28724145889 1.3509356976 -2.6352658272 -0.18370166421
          -1.3947161436 -20.101140976 1.06970191 -1.019026041 -22.552553177 -0.41990119219
          3.0641813278 -8.442029953 -1.438278079 2.747392416 -28.64024353 -0.684715271
          2.5310101509 -11.562858582 -0.76132142544 -0.55652302504 -23.519205093 0.89740812778
          2.0490219593 -14.790441513 1.4785555601 4.4376106262 -28.549217224 0.27830740809
          -0.90070933104 -24.137907028 -0.45189729333 1.949832201 -14.750985146 0.70492655039
          2.7851994038 -28.597410202 -0.32931512594 11.376551628 -32.128925323 -0.54372572899
          17.825691223 -32.717884064 -5.4756623058e-07 2.9805934429 -4.6471166611 0.48673322797
          0 0 0 11.381206512 -32.146404266 -0.27065318823
          3.2554676533 -4.6907281876 0.3437641263 14.60133934 -32.423225403 -2.5051633656e-07
          -0.052794583142 -26.241355896 -0.81438112259 -1.0773310661 -22.498048782 1.9797373625e-06
          -0.9417064786 -24.102710724 1.7598290469e-06 -0.1161435023 -20.711502075 -0.042285874486
          1.3804597855 -2.7136702538 5.0288707598e-07 -0.025370907038 -26.220804214 -0.40816998482
          2.8003277779 -28.590934753 1.0138628568e-06 -0.11286787689 -21.127599716 -0.020290471613
          1.9679509401 -14.696784019 1.9019709043e-06 0.82960426807 -25.877447128 0.78505182266
          11.383205414 -32.150928497 5.3136691491e-08 -0.11422324926 -18.421352386 0.042131308466
          3.2203850746 -4.666759491 1.0814159168e-06 8.1625738144 -31.89894104 -0.52308827639
          17.824068069 -32.710517883 0.30397233367 -0.043223917484 -26.197208405 1.5154314497e-06
          3.4246664047 -7.2851958275 1.2477473021 2.6034581661 -11.661320686 -1.585739851
          -0.11408600956 -21.065063477 2.1230455332e-06 4.4216570854 -28.570903778 0.56203001738
          0 0 0 8.1692085266 -31.90473938 -0.26155754924
          3.4297878742 -7.1818246841 0.6299097538 14.600073814 -32.416664124 0.28724095225
          -1.0190263987 -22.552553177 0.41990512609 -0.90070962906 -24.137907028 0.45190081
          1.3509356976 -2.6352658272 0.18370261788 2.7851994038 -28.597410202 0.3293171525
          1.9498317242 -14.750985146 -0.7049227953 11.381205559 -32.146404266 0.27065327764
          8.1715965271 -31.907693863 3.597634759e-07 1.465480566 -28.77637291 -0.7200088501
          1.6068193913 -17.643953323 1.291888833 3.4139223099 -7.1650352478 1.3209020153e-06
          3.2554674149 -4.6907277107 -0.34376198053 1.5051697493 -17.681869507 0.61579573154
          -0.02537114732 -26.220804214 0.40817299485 1.4922405481 -28.747022629 -0.35947501659
          -0.11286840588 -21.127599716 0.020294699818 5.1923336983 -31.729759216 -0.55040419102
          17.822414398 -32.687084198 0.60928177834 0 0 0
          2.8754615784 -10.368643761 1.2973865271 5.2097558975 -31.714038849 -0.27208855748
          14.597851753 -32.393810272 0.57660782337 2.8542010784 -10.270673752 0.64527636766
          -1.068064332 -22.403694153 0.86048489809 1.4861136675 -28.728649139 1.2512596186e-06