<?xml version="1.0"?>
<VTKFile type="UnstructuredGrid" version="0.1" byte_order="LittleEndian" header_type="UInt32" compressor="vtkZLibDataCompressor">
  <UnstructuredGrid>
    <Piece NumberOfPoints="6405" NumberOfCells="4800">
      <PointData>
        <DataArray type="Float32" Name="DISPLACEMENT" NumberOfComponents="3" ComponentName0="X-DISPLACEMENT" ComponentName1="Y-DISPLACEMENT" ComponentName2="Z-DISPLACEMENT" format="ascii" RangeMin="0" RangeMax="254.3353036">
          0 0 0 0 0 0
          2.0670609474 -1.2735733986 -0.95556664467 0 0 0
          1.3248645067 -0.75846248865 -0.7368273139 0 0 0
          1.8891912699 -1.4061280489 -0.3797339201 1.1533336639 -0.86739748716 -0.30044996738
          0 0 0 3.704665184 -2.3441464901 -0.97655147314
          0 0 0 3.6541333199 -2.500010252 -0.50409001112
          2.6595745087 -1.9302937984 -0.80997657776 0 0 0
          0 0 0 1.8963258266 -1.4508664608 1.036247113e-06
          0.95915675163 -0.52392524481 -0.56426388025 1.1488881111 -0.88925725222 4.4792560061e-07
          2.6052744389 -2.0550656319 -0.41379895806 0.82571709156 -0.62309163809 -0.22887481749
          3.6135947704 -2.5438780785 2.1927960461e-06 1.9214018583 -1.5826855898 -0.6301343441
          0 0 0 2.5703864098 -2.0961930752 1.1009982472e-06
          1.8645967245 -1.6999167204 -0.32360371947 0 0 0
          5.1882109642 -3.7200734615 -0.91188699007 0 0 0
          0.82060140371 -0.64189398289 -1.9245626959e-07 0 0 0
          0 0 0 1.8891910315 -1.406126976 0.37973591685
          3.9123895168 -3.3228340149 -0.77034020424 5.2063069344 -3.8330056667 -0.4651055038
          0.6830624342 -0.35425493121 -0.38947868347 1.1533340216 -0.86739635468 0.30045089126
          3.9273264408 -3.4297955036 -0.39275938272 0.59102469683 -0.46333777905 -0.1641381979
          1.8333337307 -1.7323887348 -8.9966277983e-08 3.6541333199 -2.5000081062 0.50409448147
          0 0 0 0 0 0
          1.3141121864 -1.3581204414 -0.4345330596 2.9048643112 -3.0043678284 -0.62831991911
          5.193652153 -3.8739688396 3.5640364331e-06 2.6052751541 -2.0550632477 0.41380122304
          2.8973078728 -3.1072762012 -0.31946012378 0.82571738958 -0.62309032679 0.22887450457
          3.9187924862 -3.4654633999 1.9677504497e-06 1.2578594685 -1.4754077196 -0.22392821312
          0.58488732576 -0.47978070378 -1.1147222949e-06 0 0 0
          6.5572242737 -5.282494545 -0.81144881248 0 0 0
          5.0928325653 -4.9236812592 -0.70823353529 1.864597559 -1.699914217 0.32360360026
          6.5966129303 -5.3634467125 -0.41089352965 2.0670614243 -1.2735714912 0.95556867123
          0 0 0 0 0 0
          1.2329472303 -1.5049625635 -1.4495403775e-06 2.887254715 -3.1384541988 2.8641852623e-07
          0.30700877309 -0.31202575564 -0.17263327539 5.1274623871 -5.0039782524 -0.35727384686
          1.3248655796 -0.75846016407 0.73682838678 1.9916838408 -2.7816462517 -0.47667315602
          0 0 0 5.2063074112 -3.8330025673 0.46511271596
          0.27707532048 -0.45163741708 -0.08952704072 1.958130002 -2.877764225 -0.24420148134
          3.9273276329 -3.4297921658 0.39276337624 0.59102553129 -0.46333634853 0.16413609684
          3.8575258255 -4.6392221451 -0.60651308298 0.46639537811 -1.2337688208 -0.22316609323
          6.59775877 -5.3919782639 5.1028332564e-06 3.7046663761 -2.3441421986 0.9765561223
          0 0 0 0 0 0
          3.8702738285 -4.7173047066 -0.3053201139 2.659576416 -1.9302891493 0.80997896194
          5.1329240799 -5.0320210457 3.0534686175e-06 0.41209638119 -1.3572409153 -0.12725447118
          0.95915716887 -0.52392244339 0.56426376104 0.27984139323 -0.488093853 -2.4586115615e-06
          1.9468003511 -2.9054698944 -1.5395279434e-06 2.8973088264 -3.1072728634 0.31946074963
          1.2578603029 -1.4754049778 0.22392532229 3.8712966442 -4.7436528206 9.3280027613e-07
          1.9214032888 -1.5826804638 0.6301343441 0.39970672131 -1.3876894712 -2.9384593745e-06
          2.7103772163 -4.4540233612 -0.50931328535 6.596613884 -5.363442421 0.41090381145
          5.1882128716 -3.7200672626 0.91189438105 0 0 0
          7.8005042076 -6.9806342125 -0.72627282143 0 0 0
          0 0 0 0.840056777 -2.6300604343 -0.35621920228
          2.7017173767 -4.5228672028 -0.2577483058 7.8391432762 -7.0378947258 -0.36531111598
          6.1919031143 -6.6519827843 -0.65216308832 5.1274638176 -5.0039739609 0.35728001595
          0.024109061807 -0.50800865889 -0.16593539715 0 0 0
          3.9123921394 -3.3228273392 0.77034431696 0.68306320906 -0.35425171256 0.38947671652
          0.78981930017 -2.7150387764 -0.17994442582 0.27707651258 -0.45163571835 0.0895222947
          -0.073628932238 -0.56316530704 -0.060931690037 1.9581311941 -2.8777606487 0.24419845641
          6.2268629074 -6.7116107941 -0.32668110728 3.8702754974 -4.717300415 0.30532205105
          2.6999716759 -4.5498576164 -1.331772296e-06 7.8456835747 -7.0585641861 6.8048666435e-06
          0.15976990759 -1.5085104704 -0.34581133723 0.41209772229 -1.3572380543 0.12724858522
          0 0 0 4.7727594376 -6.3864765167 -0.57733649015
          1.3141132593 -1.3581148386 0.43453019857 2.904866457 -3.0043606758 0.62832069397
          0.78275644779 -2.7427811623 -3.4813422189e-06 6.2359118462 -6.7326893806 4.3460563575e-06
          -0.065990142524 -0.61411929131 -4.9070322348e-06 0.10421425849 -1.5170356035 -0.13219581544
          4.7931890488 -6.4459171295 -0.28961393237 6.5572271347 -5.2824864388 0.8114593029
          0 0 0 1.4979155064 -4.3086371422 -0.46295270324
          5.09283638 -4.9236726761 0.70823985338 0.11614727974 -1.5692985058 -5.9446356317e-06
          1.475135088 -4.3618264198 -0.21808737516 4.7985458374 -6.4672460556 1.82507506e-06
          0.30700969696 -0.31202185154 0.17262871563 2.7017188072 -4.5228629112 0.25774568319
          3.4489095211 -6.18866539 -0.506970644 7.8391447067 -7.0378894806 0.36532479525
          0.40967094898 -2.8103826046 -0.41437849402 1.9916856289 -2.7816388607 0.476670295
          0 0 0 0.78982120752 -2.7150352001 0.17993752658
          3.4568810463 -6.2484102249 -0.25487914681 -0.073627129197 -0.5631633997 0.060922134668
          0.41990906 -2.8310801983 -0.17488220334 6.2268648148 -6.7116055489 0.32668986917
          3.8575289249 -4.639213562 0.60651516914 0.46639689803 -1.2337628603 0.22316026688
          8.9349126816 -8.7626695633 -0.66342657804 0 0 0
          1.460089922 -4.3819909096 -3.7844006329e-06 7.2179059982 -8.4579029083 -0.60658705235
          8.9657735825 -8.8064126968 -0.33280214667 0 0 0
          0.068519242108 -0.72465878725 -0.11413143575 7.2467441559 -8.5048885345 -0.30290311575
          3.4561920166 -6.270652771 -8.1639444716e-07 0.035630706698 -0.76677495241 -0.042156215757
          0.10421654582 -1.5170325041 0.13218428195 0.41385793686 -2.8626410961 -6.6034031079e-06
          4.7931909561 -6.4459118843 0.28961762786 5.6520385742 -8.2054824829 -0.54590409994
          0.011494932696 -1.689789772 -0.13781017065 8.97315979 -8.8222522736 8.6674881459e-06
          0 0 0 -0.024271441624 -1.7458182573 -0.10339820385
          5.672712326 -8.2541418076 -0.27308693528 7.2552776337 -8.5215396881 5.8345094658e-06
          0.026796281338 -0.77985566854 -3.6361050206e-06 2.7103798389 -4.4540143013 0.50931084156
          2.2401368618 -6.0208520889 -0.42880773544 7.8005084991 -6.9806241989 0.72628670931
          0 0 0 0.71263372898 -4.2956991196 -0.32551756501
          1.4751375914 -4.3618216515 0.21807982028 0.8400592804 -2.6300528049 0.35621258616
          6.1919074059 -6.6519727707 0.65217202902 0.024110393599 -0.50800329447 0.16592589021
          0.74742174149 -4.3779621124 -0.1695728451 2.2421755791 -6.0920362473 -0.21145254374
          3.4568829536 -6.2484045029 0.25487753749 0.41991168261 -2.8310763836 0.17486917973
          5.6785588264 -8.2711400986 2.9411933156e-06 -0.021445618942 -1.756395936 -6.8431486397e-06
          4.2050213814 -8.0071487427 -0.48221299052 -0.18312826753 -3.0128934383 -0.31860262156
          0.15977203846 -1.5085031986 0.34579998255 8.9657754898 -8.8064079285 0.33281955123
          4.7727632523 -6.3864660263 0.57734036446 0 0 0
          2.2367222309 -6.1124916077 -3.7101383441e-06 0.74426746368 -4.3905749321 -6.8744420787e-06
          4.2166132927 -8.0571174622 -0.24069738388 7.2467465401 -8.5048828125 0.30291485786
          -0.16460040212 -3.0698947906 -0.13358530402 0.035631071776 -0.76677316427 0.04214925319
          1.4979190826 -4.3086276054 0.46294516325 4.2188134193 -8.0723152161 -6.2063215012e-08
          5.6727147102 -8.2541351318 0.27309286594 -0.02427020669 -1.7458155155 0.10338449478
          -0.14617481828 -3.0601267815 -1.0680421838e-05 9.9893798828 -10.601691246 -0.62281703949
          0 0 0 10.011281013 -10.640102386 -0.31186512113
          3.4489130974 -6.1886544228 0.50696909428 8.1817903519 -10.315478325 -0.572447896
          0.40967383981 -2.8103737831 0.414365381 0.97885090113 -5.9133591652 -0.25365012884
          0.016510071233 -0.84849196672 -0.048738248646 0.74742406607 -4.3779568672 0.16955907643
          2.2421779633 -6.0920305252 0.21144510806 0 0 0
          8.2028656006 -10.356684685 -0.28529298306 0.98469555378 -6.0160861015 -0.14604344964
          -0.005631652195 -0.88432192802 -0.021294141188 2.8521795273 -7.8556580544 -0.39917674661
          0.049721576273 -4.549012661 -0.30987524986 8.93491745 -8.7626581192 0.66344416142
          0 0 0 7.2179112434 -8.4578914642 0.60659897327
          10.018045425 -10.653828621 1.0698190636e-05 0.008077618666 -4.5864577293 -0.11867746711
          2.8436839581 -7.9039902687 -0.20292969048 0.068516947329 -0.72465628386 0.11412501335
          6.4857587814 -10.085012436 -0.51797693968 -0.028607403859 -1.9000213146 -0.089438878
          0 0 0 4.2166156769 -8.0571117401 0.24069729447
          -0.16459676623 -3.0698916912 0.13356481493 8.2093677521 -10.370802879 7.5147372627e-06
          1.0009926558 -6.0438451767 -6.8793633545e-06 6.5036406517 -10.126729012 -0.25738230348
          -0.047292280942 -1.9506598711 -0.041218876839 -0.0066329501569 -0.89314311743 -3.1872064028e-06
          5.6520433426 -8.2054710388 0.54591012001 0.011493412778 -1.6897858381 0.13779830933
          2.8404877186 -7.9140095711 -3.2036507491e-06 0.042437572032 -4.6180758476 -1.0937487787e-05
          2.2401401997 -6.020840168 0.42880022526 6.5083136559 -10.140554428 4.2709943955e-06
          -0.051327884197 -1.9672143459 -6.6407046688e-06 0.71263700724 -4.2956886292 0.32550337911
          10.011283875 -10.640095711 0.3118865788 4.9054055214 -9.9335327148 -0.46475377679
          0 0 0 -0.03879731521 -3.1426329613 -0.091899655759
          4.9170384407 -9.970574379 -0.22969892621 8.2028684616 -10.356678009 0.28530806303
          -0.0056317364797 -0.88432085514 0.021288102493 0.98469763994 -6.0160803795 0.14602963626
          -0.059432353824 -3.2172684669 -0.06106422469 4.2050256729 -8.0071363449 0.48221302032
          1.3083027601 -7.7232704163 -0.32998493314 2.8436861038 -7.9039840698 0.20292328298
          -0.18312557042 -3.0128829479 0.31858187914 0.0080802496523 -4.5864524841 0.11865579337
          0.29940214753 -6.2068891525 -0.39213445783 1.2788289785 -7.7689180374 -0.16352201998
          4.9189181328 -9.9825172424 9.6021392437e-07 6.5036430359 -10.126722336 0.25739088655
          -0.047292482108 -1.9506579638 0.041205875576 0.24560318887 -6.1856489182 -0.1484901756
          -0.065236836672 -3.2241845131 -9.4851984613e-06 10.996814728 -12.489917755 -0.60149294138
          0 0 0 -0.020644711331 -0.92060554028 -0.0051696263254
          1.2793081999 -7.7814741135 -6.472016139e-06 3.4195182323 -9.8681583405 -0.42301100492
          9.0985631943 -12.213135719 -0.54890310764 9.9893856049 -10.601678848 0.62283867598
          0 0 0 0 0 0
          0.28576216102 -6.2429003716 -1.1004916814e-05 -0.044438581914 -4.5806288719 -0.11778695881
          11.010306358 -12.52944088 -0.30071720481 3.4180898666 -9.8893280029 -0.20931875706
          9.1128044128 -12.254560471 -0.27290084958 8.1817970276 -10.315465927 0.57246315479
          -0.025109590963 -0.95043826103 -0.0012266363483 0.97885423899 -5.9133467674 0.25363641977
          0.016507117078 -0.84849083424 0.048732213676 -0.054473597556 -4.6582818031 -0.069538734853
          4.9170408249 -9.9705677032 0.22970089316 -0.059432562441 -3.2172658443 0.061045009643
          7.2653722763 -12.000271797 -0.49134513736 2.8521835804 -7.8556456566 0.39917042851
          0.049725092947 -4.5490007401 0.30985358357 0 0 0
          -0.058251641691 -1.9913882017 -0.01100159809 11.015830994 -12.543131828 1.2916358173e-05
          -0.026481568813 -0.95881807804 -2.6806110327e-06 3.4209702015 -9.899559021 -2.4539783681e-06
          7.2788209915 -12.038624763 -0.24298818409 6.4857645035 -10.084999084 0.51798570156
          9.1175870895 -12.267923355 9.384745681e-06 -0.028610594571 -1.9000188112 0.089426480234
          -0.070530042052 -4.6676578522 -1.172077009e-05 -0.065018936992 -2.0374753475 -0.0055063520558
          1.2788316011 -7.7689118385 0.16350910068 0.24560603499 -6.1856427193 0.14846856892
          0.61183023453 -7.9757962227 -0.48987364769 7.2801775932 -12.048411369 5.7924867178e-06
          -0.067235507071 -2.0514473915 -5.7701640799e-06 0.62578618526 -7.9419288635 -0.18945668638
          5.5366711617 -11.881554604 -0.43638968468 0 0 0
          -0.10393001139 -3.2354981899 -0.017516162246 11.010308266 -12.52943325 0.30074307323
          -0.025110037997 -0.9504378438 0.0012214350281 3.4180922508 -9.8893213272 0.20931392908
          5.5461025238 -11.912226677 -0.21259479225 4.9054102898 -9.9335193634 0.46475589275
          9.1128072739 -12.254552841 0.27291968465 1.9525136948 -9.8169240952 -0.44831550121
          -0.0097974967211 -6.1942939758 -0.1182198599 -0.038799934089 -3.1426289082 0.091882102191
          -0.10951732844 -3.2921657562 -0.0056052040309 -0.054473165423 -4.6582784653 0.069515511394
          1.9148461819 -9.8114118576 -0.20344109833 -0.049456182867 -6.2781014442 -0.11324439198
          0.62914741039 -7.9700279236 -1.0634221326e-05 1.3083075285 -7.7232580185 0.32997238636
          7.2788243294 -12.038617134 0.2429998219 0.29940617085 -6.2068762779 0.39211314917
          5.5406970978 -11.921616554 2.1720966288e-06 -0.065019972622 -2.0374746323 0.0054948879406
          -0.1131836772 -3.3125865459 -8.795015674e-06 1.8797590733 -9.803314209 -5.9603839873e-06
          -0.037475567311 -6.2872867584 -1.3156799469e-05 -0.14398042858 -4.6634097099 -0.016026837751
          3.9482145309 -11.844431877 -0.41181734204 10.996821404 -12.48990345 0.601518929
          0 0 0 0.62578934431 -7.9419226646 0.18943573534
          -0.020647926256 -0.92060524225 0.0051641184837 -0.15619915724 -4.731566906 -0.0090043721721
          3.4195227623 -9.8681440353 0.42300635576 9.09856987 -12.213122368 0.54892212152
          3.9550950527 -11.86398983 -0.20118129253 11.987535477 -14.438663483 -0.59551566839
          0 0 0 -0.044440001249 -4.5806231499 0.11776550859
          11.99412632 -14.483437538 -0.29710906744 -0.055820595473 -0.94652795792 0.035570390522
          9.9911880493 -14.161101341 -0.53414624929 5.5461058617 -11.912219048 0.21259921789
          0 0 0 -0.10951849818 -3.2921645641 0.0055880108848
          9.9990053177 -14.207123756 -0.26578709483 -0.047154571861 -0.97311508656 0.015080871992
          1.9148497581 -9.8114051819 0.20342923701 -0.049454979599 -6.2780971527 0.11321823299
          7.265378952 -12.000257492 0.49135696888 -0.15872748196 -4.754011631 -1.1307864042e-05
          3.9482431412 -11.87493515 -1.4341796941e-06 -0.05825611949 -1.9913876057 0.010990570299
          0.93187743425 -9.8990354538 -0.3728633225 -0.11062462628 -2.0301678181 0.043177641928
          8.0085601807 -13.939135551 -0.46904182434 -0.16300603747 -8.2749490738 -0.47263687849
          11.998198509 -14.498270035 1.5352350601e-05 0 0 0
          0.97170644999 -9.9283857346 -0.20685422421 10.002085686 -14.221641541 1.1442332834e-05
          -0.046993777156 -0.98035871983 -2.172770337e-06 8.0203800201 -13.98061657 -0.23039670289
          -0.10558437556 -2.0687303543 0.023349346593 -0.12562249601 -8.2685108185 -0.21521657705
          0.61183476448 -7.9757823944 0.48985251784 0.98427176476 -9.9204673767 -9.7319916676e-06
          -0.21350234747 -6.3250174522 -0.047024659812 -0.15620008111 -4.7315654755 0.008982216008
          2.5710861683 -11.817893982 -0.40470096469 8.0234651566 -13.989127159 7.4703862083e-06
          5.5366768837 -11.881540298 0.43639430404 3.9550979137 -11.863982201 0.20117846131
          -0.10461579263 -8.2408485413 -1.4900973838e-05 -0.1041585952 -2.0819334984 -4.8676683946e-06
          -0.10393440723 -3.2354972363 0.017499795184 11.994129181 -14.483429909 0.29713982344
          6.1152143478 -13.826893806 -0.39807721972 -0.22395099699 -6.3987050056 -0.01978728734
          -0.16621828079 -3.277121067 0.049196016043 2.5737247467 -11.833106995 -0.20118924975
          1.9525194168 -9.8169107437 0.44830361009 -0.0097975069657 -6.1942863464 0.1181962043
          0 0 0 -0.16436420381 -3.324255228 0.026245770976
          9.9990081787 -14.207116127 0.26581001282 -0.04715519771 -0.97311508656 -0.015085147694
          6.1012892723 -13.849870682 -0.19721396267 -0.22998718917 -6.4192318916 -1.3438409042e-05
          2.5604741573 -11.83800602 -5.1016954785e-06 0.97170883417 -9.9283790588 0.20683453977
          6.0721468925 -13.84627533 3.5291486711e-06 -0.16423977911 -3.3405828476 -7.6215446825e-06
          8.0203838348 -13.98060894 0.23041172326 -0.10558571666 -2.0687303543 -0.023359050974
          -0.12561988831 -8.2685041428 0.21518684924 -0.14398403466 -4.6634078026 0.016005996615
          3.9482200146 -11.844416618 0.41181463003 4.4413676262 -13.802972794 -0.36399918795
          11.987542152 -14.43864727 0.59554648399 0 0 0
          -0.22699680924 -4.713552475 0.053242508322 -0.055823765695 -0.94652843475 -0.035575132817
          9.9911956787 -14.161085129 0.5341693759 -0.22395130992 -6.3987021446 0.019760921597
          2.5737276077 -11.833099365 0.20117899776 4.4317569733 -13.817111015 -0.17537562549
          0.15958254039 -10.204003334 -0.4319010675 -0.22602878511 -4.7664217949 0.02947264351
          -0.16436584294 -3.324255228 -0.026260834187 6.1012926102 -13.849863052 0.19722111523
          0.14785784483 -10.185471535 -0.18664371967 1.1952195168 -11.744768143 -0.34801340103
          -0.24304386973 -8.1565656662 -0.0029355499428 12.982739449 -16.474411011 -0.59845107794
          0 0 0 10.877440453 -16.191177368 -0.52917224169
          0.9318819046 -9.8990211487 0.37284296751 -0.11062926799 -2.0301687717 -0.0431872271
          8.0085678101 -13.939120293 0.46905708313 -0.26958459616 -8.2632780075 -0.078311152756
          1.2087786198 -11.779904366 -0.17227011919 -0.16300180554 -8.274933815 0.47260689735
          12.984239578 -16.524827957 -0.2983392179 0 0 0
          -0.22776293755 -4.7855672836 -1.0137619938e-05 4.4014334679 -13.822341919 -3.2059173805e-07
          -0.092443138361 -0.94025301933 0.072502046824 10.880075455 -16.242666245 -0.26382511854
          -0.071699440479 -0.96523994207 0.030234491453 0.19131311774 -10.208174706 -1.4163063497e-05
          8.7620458603 -15.946831703 -0.45552352071 -0.23373654485 -8.2800540924 -1.4960139197e-05
          1.2290178537 -11.806617737 -9.0979774541e-06 12.986509323 -16.541297913 1.8042650481e-05
          0 0 0 -0.1599393338 -2.0161468983 0.093432381749
          8.768737793 -15.997516632 -0.2258297801 10.881971359 -16.259031296 1.3689272237e-05
          -0.21350444853 -6.3250136375 0.046999782324 2.5710914135 -11.817878723 0.40469053388
          -0.070529788733 -0.97185277939 -1.691694365e-06 -0.14636777341 -2.0517320633 0.048078373075
          6.1152210236 -13.826877594 0.3980846405 -0.16622322798 -3.2771217823 -0.049210496247
          -0.28124651313 -6.3433475494 0.066811971366 3.0274522305 -13.821457863 -0.3639959991
          -0.22603029013 -4.7664213181 -0.02949260734 4.4317603111 -13.817103386 0.17537505925
          -0.28447413445 -6.4069900513 0.029639337212 3.0360298157 -13.815386772 -0.17445598543
          0.14785996079 -10.185464859 0.18661552668 8.7723722458 -16.012622833 9.2697937362e-06
          -0.1413923353 -2.0632975101 -3.9316219045e-06 6.6231164932 -15.779842377 -0.38294914365
          -0.26958492398 -8.2632741928 0.078281417489 1.2087807655 -11.779895782 0.17225201428
          12.984242439 -16.524820328 0.29837533832 0 0 0
          -0.21852277219 -3.2562344074 0.1043985635 6.6190690994 -15.811392784 -0.19138714671
          10.880079269 -16.242658615 0.26385253668 -0.21093390882 -3.2975335121 0.054265603423
          -0.28363740444 -6.4290390015 -1.2314182641e-05 3.0359840393 -13.813908577 -4.153097052e-06
          -0.071700103581 -0.9652402401 -0.030237868428 8.7687416077 -15.997509003 0.22584842145
          6.605530262 -15.810012817 5.0023909353e-06 -0.20834329724 -3.3114578724 -6.3181546466e-06
          4.4413738251 -13.802957535 0.36399883032 0.45221725106 -12.047949791 -0.47583517432
          -0.14636915922 -2.0517327785 -0.048086278141 -0.22700127959 -4.7135529518 -0.053261525929
          -0.49138560891 -10.355079651 -0.27616983652 0.47280302644 -12.023944855 -0.17192988098
          0.15958693624 -10.203988075 0.43187272549 -0.44607663155 -10.348540306 -0.18719343841
          -0.28447532654 -6.4069890976 -0.029663577676 3.0360326767 -13.815379143 0.17444773018
          1.1952239275 -11.74475193 0.34799548984 -0.24304556847 -8.1565599442 0.0029077294748
          -0.26994422078 -4.6796660423 0.11340133846 4.8404736519 -15.779729843 -0.327031672
          12.982747078 -16.474393845 0.59848731756 0 0 0
          10.877448082 -16.191160202 0.52919983864 -0.26541686058 -4.7241535187 0.05861922726
          0.47505608201 -12.05853653 -1.3185878743e-05 -0.35640728474 -8.1843996048 0.050708927214
          1.7351322174 -13.844531059 -0.40642669797 4.797036171 -15.769176483 -0.16482806206
          -0.092445999384 -0.94025397301 -0.072505958378 -0.15293781459 -10.113602638 -1.6131440134e-05
          6.6190729141 -15.811385155 0.1913972795 -0.21093562245 -3.297533989 -0.0542781353
          1.6794769764 -13.799051285 -0.18206445873 -0.35194560885 -8.2465543747 0.026208655909
          8.7620534897 -15.946814537 0.45554244518 -0.26420202851 -4.7399845123 -8.5536057668e-06
          4.7162389755 -15.744146347 9.2191567092e-07 -0.15994365513 -2.0161485672 -0.09344034642
          1.6059676409 -13.748565674 -7.9716282926e-06 13.987436295 -18.62269783 -0.60381406546
          0 0 0 -0.32873910666 -8.2487859726 -1.4199546058e-05
          13.986289978 -18.676258087 -0.30127853155 0 0 0
          0.47280490398 -12.023936272 0.17190384865 11.768374443 -18.33536911 -0.5313308239
          -0.28125017881 -6.3433475494 -0.066834904253 3.0274577141 -13.821442604 0.36398795247
          -0.12767612934 -0.90268087387 0.11021291465 -0.44607803226 -10.348535538 0.18716077507
          11.767523766 -18.389940262 -0.26550734043 -0.095472745597 -0.92784303427 0.045950908214
          6.6231241226 -15.779825211 0.38295966387 13.986895561 -18.693889618 2.1019037376e-05
          -0.26541855931 -4.7241544724 -0.058636128902 9.5294599533 -18.077411652 -0.456941396
          -0.20559105277 -1.9484250546 0.14362718165 4.7970399857 -15.769168854 0.16482999921
          0 0 0 3.462580204 -15.788789749 -0.35648661852
          -0.31254395843 -6.2956376076 0.12133720517 -0.21852754056 -3.2562365532 -0.10441081226
          -0.18435850739 -1.983719945 0.07361292094 9.530412674 -18.135347366 -0.22856521606
          11.768200874 -18.408136368 1.6125823095e-05 1.6794800758 -13.799043655 0.18204858899
          -0.30836516619 -6.3404922485 0.063973613083 3.4600434303 -15.769836426 -0.18091359735
          -0.35194641352 -8.246553421 -0.026236481965 -0.093460254371 -0.93381589651 -1.2471019772e-06
          -0.35332837701 -12.343418121 -0.44221505523 9.5322542191 -18.155406952 1.1173750863e-05
          0.4522215426 -12.047933578 0.47580912709 -0.17662674189 -1.9942139387 -3.0137020985e-06
          -0.30732962489 -6.3558039665 -1.0527787708e-05 -0.29500195384 -12.35094738 -0.19190129638
          3.448854208 -15.757845879 -3.0299565879e-06 -0.49138635397 -10.355070114 0.27614086866
          13.986293793 -18.67624855 0.30132061243 7.2358298302 -17.843358994 -0.37597867846
          -0.35791143775 -10.15922451 0.060504920781 0 0 0
          -0.26058664918 -3.1649763584 0.159270823 0.7307677269 -13.948839188 -0.35616338253
          -0.25030565262 -3.2047567368 0.081955634058 7.2534132004 -17.900556564 -0.18896164
          11.76752758 -18.389930725 0.26553964615 -0.36195588112 -10.237181664 -0.006486991886
          0.77391350269 -13.954543114 -0.20450636744 -0.095473378897 -0.9278435111 -0.045953441411
          -0.26994878054 -4.6796684265 -0.11341761798 4.8404803276 -15.779713631 0.32703390718
          -0.27084392309 -12.311747551 -1.6875656002e-05 -0.35640978813 -8.1843986511 -0.050735116005
          1.7351378202 -13.8445158 0.40641093254 7.2706251144 -17.920383453 6.369102266e-06
          9.5304174423 -18.13533783 0.22858767211 -0.39502480626 -10.214776993 -1.5689938664e-05
          -0.1843598038 -1.9837207794 -0.073619030416 -0.2460206002 -3.217181921 -4.9487762226e-06
          -0.3083665967 -6.3404927254 -0.0639943555 3.4600465298 -15.769828796 0.18090757728
          0.77879369259 -13.916858673 -1.1500733308e-05 2.2506659031 -15.751058578 -0.36684903502
          -0.32828098536 -8.0905952454 0.13561798632 2.2455971241 -15.7468853 -0.18462724984
          -0.32807973027 -8.1378364563 0.067163728178 13.987443924 -18.622678757 0.60385620594
          0 0 0 -0.29500195384 -12.350938797 0.19186761975
          -0.30110526085 -4.5686435699 0.16682493687 5.1536531448 -17.694675446 -0.29975709319
          -0.29665064812 -4.6078910828 0.085933595896 11.768383026 -18.335350037 0.53136330843
          -0.12767854333 -0.90268206596 -0.11021598428 5.112806797 -17.685861588 -0.17733353376
          7.2534174919 -17.900547028 0.18897457421 -0.36195585132 -10.237178802 0.0064562214538
          -0.25030723214 -3.2047576904 -0.081965498626 0.77391505241 -13.954535484 0.20448318124
          2.2221496105 -15.733997345 -6.7133746597e-06 -0.33350890875 -8.150560379 -1.2191224414e-05
          9.5294675827 -18.077392578 0.45696410537 -0.20559479296 -1.9484272003 -0.14363346994
          3.4625859261 -15.78877449 0.35648077726 -0.29589918256 -4.6195764542 -6.7759319791e-06
          -0.31254780293 -6.2956399918 -0.12135706097 5.0069389343 -17.65520668 2.072747975e-06
          14.997666359 -20.895082474 -0.6070395112 0 0 0
          -0.35332491994 -12.343400955 0.44218105078 2.2455997467 -15.74687767 0.18461380899
          0 0 0 12.663393974 -20.607070923 -0.53538006544
          -0.43086901307 -12.081992149 0.10136560351 -0.32808065414 -8.1378364563 -0.067187741399
          -0.16305698454 -0.83124005795 0.15156470239 -0.026729885489 -14.200731277 -0.37450602651
          14.996072769 -20.948701859 -0.30326154828 7.2358374596 -17.84333992 0.37599217892
          12.661219597 -20.661314011 -0.26819083095 -0.11912479252 -0.85634988546 0.063714154065
          -0.35791262984 -10.159221649 -0.060534141958 -0.45703411102 -12.20602417 -0.057530671358
          -0.2605908215 -3.1649792194 -0.15928061306 3.9042401314 -17.656929016 -0.3427926302
          -0.29665222764 -4.6078925133 -0.085947036743 0.73077183962 -13.948823929 0.3561398387
          -0.3229149878 -6.1556482315 0.17232824862 5.1128110886 -17.685853958 0.17733775079
          -0.026677930728 -14.211069107 -0.14518593252 -0.3208220005 -6.1930618286 0.089637137949
          3.9314250946 -17.654624939 -0.14830330014 10.316740036 -20.342744827 -0.46506747603
          14.995521545 -20.966539383 2.4294275136e-05 -0.24775381386 -1.8248276711 0.19866573811
          0 0 0 10.31451416 -20.401981354 -0.23273542523
          -0.21973761916 -1.8595683575 0.10197544843 12.660830498 -20.680047989 1.8747778086e-05
          0.9905538559 -15.678330421 -0.33161059022 -0.38167265058 -12.23770237 -1.6689884433e-05
          -0.011248839088 -14.20379734 -1.4940764231e-05 -0.33882921934 -10.007681847 0.14387871325
          -0.11683434248 -0.86114966869 -8.4580585735e-07 0.98606944084 -15.700517654 -0.14470376074
          3.9482247829 -17.664310455 -2.2240055841e-06 -0.34349042177 -10.066048622 0.075031928718
          -0.32037734985 -6.2044506073 -8.3412087406e-06 2.2506709099 -15.75104332 0.36683556437
          10.315425873 -20.422483444 1.3141041563e-05 -0.32828378677 -8.0905971527 -0.1356408298
          -0.20929829776 -1.868399024 -2.1493053737e-06 7.9296927452 -20.08577919 -0.37741565704
          14.99607563 -20.948690414 0.30331015587 0.97656446695 -15.72707653 -1.0297579138e-05
          -0.30249360204 -3.0072567463 0.21662850678 -0.30110925436 -4.5686469078 -0.16683806479
          -0.3354742527 -10.092675209 -1.3671885426e-05 5.1536602974 -17.694660187 0.29976195097
          0 0 0 7.9425706863 -20.158420563 -0.19170276821
          -0.29011401534 -3.0465040207 0.11219944805 12.661223412 -20.661302567 0.26822835207
          -0.45703426003 -12.206019402 0.057497486472 -0.026678251103 -14.211060524 0.14515575767
          -0.11912535876 -0.85635042191 -0.063715912402 3.9314284325 -17.65461731 0.14829914272
          -0.32082346082 -6.1930627823 -0.089653648436 10.314518929 -20.40196991 0.23276180029
          7.9602427483 -20.188489914 7.6355790952e-06 2.7081551552 -17.65243721 -0.34022900462
          -0.30907428265 -7.9105944633 0.17515935004 -0.28465408087 -3.0567660332 -3.6243388877e-06
          -0.21973875165 -1.8595693111 -0.10197985172 -0.30943951011 -7.9447717667 0.095845766366
          0.98607099056 -15.700510025 0.14468322694 2.6864993572 -17.623868942 -0.14629225433
          -0.34349060059 -10.066047668 -0.075058735907 5.5263442993 -19.755044937 -0.25884699821