<?xml version="1.0"?>
<VTKFile type="UnstructuredGrid" version="0.1" byte_order="LittleEndian" header_type="UInt32" compressor="vtkZLibDataCompressor">
  <UnstructuredGrid>
    <Piece NumberOfPoints="6405" NumberOfCells="4800">
      <PointData>
        <DataArray type="Float32" Name="DISPLACEMENT" NumberOfComponents="3" ComponentName0="X-DISPLACEMENT" ComponentName1="Y-DISPLACEMENT" ComponentName2="Z-DISPLACEMENT" format="ascii" RangeMin="0" RangeMax="266.64433733">
          0 0 0 0 0 0
          2.1542315483 -1.3356804848 -0.9934450984 0 0 0
          1.3653749228 -0.80073052645 -0.75909084082 0 0 0
          1.9710505009 -1.4769774675 -0.39435893297 1.18859303 -0.91673183441 -0.30909338593
          0 0 0 3.8551967144 -2.4798595905 -1.0116838217
          0 0 0 3.8047685623 -2.6447196007 -0.52196735144
          2.7403759956 -2.0545723438 -0.83475649357 0 0 0
          0 0 0 1.9789896011 -1.5238517523 5.3782338227e-07
          0.9835074544 -0.5605751276 -0.56770759821 1.1844701767 -0.93878507614 2.2752034567e-07
          2.6863439083 -2.186258316 -0.42619585991 0.84932881594 -0.66171324253 -0.23173849285
          3.7631847858 -2.6910405159 1.202708404e-06 1.9367039204 -1.7152915001 -0.64911365509
          0 0 0 2.6510078907 -2.229845047 6.2553544922e-07
          1.8799898624 -1.8389955759 -0.33246463537 0 0 0
          5.3902487755 -3.9508609772 -0.94016480446 0 0 0
          0.84568178654 -0.67969584465 -1.3942116084e-07 0 0 0
          0 0 0 1.9710503817 -1.4769769907 0.39435997605
          4.0252623558 -3.540542841 -0.78954732418 5.4113664627 -4.0701122284 -0.47927540541
          0.57889437675 -0.37715002894 -0.39794495702 1.1885932684 -0.91673123837 0.30909386277
          4.0427880287 -3.6541521549 -0.40287494659 0.46993023157 -0.47488632798 -0.1706058532
          1.8489294052 -1.8757559061 -2.3098962743e-08 3.8047688007 -2.6447184086 0.52196979523
          0 0 0 0 0 0
          1.3030723333 -1.5173839331 -0.46122857928 2.9460959435 -3.1992874146 -0.63676148653
          5.3983764648 -4.1130785942 2.0331342512e-06 2.6863443851 -2.1862571239 0.42619717121
          2.940155983 -3.3120861053 -0.32457894087 0.84932905436 -0.66171258688 0.23173828423
          4.0342154503 -3.6919057369 1.1860380482e-06 1.2574846745 -1.6439055204 -0.23032125831
          0.45953422785 -0.48941364884 -6.1182947775e-07 0 0 0
          6.7981638908 -5.6243553162 -0.82972097397 0 0 0
          5.2395906448 -5.2540621758 -0.7228141427 1.8799905777 -1.8389941454 0.33246460557
          6.8408408165 -5.7078690529 -0.42017105222 2.1542317867 -1.3356795311 0.99344623089
          0 0 0 0 0 0
          1.2314058542 -1.6781151295 -8.3915415416e-07 2.9286701679 -3.345672369 2.7158625926e-07
          0.3524492383 -0.40233966708 -0.25991302729 5.2762169838 -5.3375835419 -0.36464518309
          1.365375638 -0.80072933435 0.75909149647 1.9702814817 -2.9357674122 -0.45601212978
          0 0 0 5.4113669395 -4.0701107979 0.47927951813
          0.35889089108 -0.52117031813 -0.11637225002 1.9378228188 -3.0545277596 -0.23533278704
          4.0427889824 -3.654150486 0.40287736058 0.46993103623 -0.47488561273 0.17060472071
          3.9354097843 -4.9524345398 -0.61346149445 0.54843586683 -1.4491647482 -0.19458708167
          6.8417510986 -5.7372832298 2.9971743061e-06 3.8551976681 -2.4798574448 1.0116864443
          0 0 0 0 0 0
          3.9447221756 -5.0354404449 -0.30877169967 2.7403774261 -2.0545697212 0.83475792408
          5.2818861008 -5.3665266037 1.9070201915e-06 0.51775938272 -1.6009893417 -0.11469890177
          0.98350781202 -0.56057369709 0.5677075386 0.3631182611 -0.56254470348 -1.5787550183e-06
          1.9234336615 -3.0848433971 -7.4124085359e-07 2.9401569366 -3.312084198 0.32457953691
          1.2574856281 -1.6439039707 0.23031960428 3.9452307224 -5.0624790192 7.6437567031e-07
          1.9367049932 -1.7152887583 0.6491137743 0.50285732746 -1.6345990896 -1.8852136918e-06
          2.7159388065 -4.7394852638 -0.50262355804 6.8408412933 -5.7078666687 0.42017710209
          5.3902506828 -3.9508576393 0.94016903639 0 0 0
          8.0636663437 -7.4409594536 -0.73525488377 0 0 0
          0 0 0 0.74462670088 -2.7778837681 -0.2651745975
          2.6896743774 -4.8138256073 -0.25391411781 8.1050233841 -7.4961133003 -0.36999586225
          6.3616638184 -7.1097350121 -0.66445726156 5.2762179375 -5.3375811577 0.36464902759
          -0.047743737698 -0.56669545174 -0.1510348171 0 0 0
          4.0252642632 -3.5405392647 0.78954982758 0.57889527082 -0.37714838982 0.39794403315
          0.69713336229 -2.903857708 -0.14807666838 0.35889178514 -0.52116936445 0.11636916548
          -0.12071019411 -0.65666478872 -0.050712000579 1.9378238916 -3.0545258522 0.23533134162
          6.3980307579 -7.1672554016 -0.3327678144 3.9447233677 -5.0354380608 0.30877327919
          2.6848831177 -4.8386621475 -4.5134447646e-07 8.1113510132 -7.516292572 4.085076398e-06
          0.11851137131 -1.7329435349 -0.26271942258 0.51776027679 -1.6009875536 0.11469517648
          0 0 0 4.8703989983 -6.8487482071 -0.59468603134
          1.3030736446 -1.5173805952 0.46122694016 2.9460978508 -3.1992835999 0.63676220179
          0.69263315201 -2.9369106293 -1.8073301362e-06 6.4074416161 -7.1878581047 2.7763758226e-06
          -0.12836803496 -0.69261282682 -3.2211084999e-06 0.012637918815 -1.7647185326 -0.092915147543
          4.8866677284 -6.904355526 -0.2973959744 6.7981657982 -5.6243510246 0.82972717285
          0 0 0 1.2662228346 -4.5667867661 -0.42918354273
          5.239593029 -5.2540578842 0.72281813622 0.030903073028 -1.8233238459 -3.589374046e-06
          1.2184720039 -4.6252183914 -0.20739170909 4.8913269043 -6.9243564606 1.4310371625e-06
          0.35245013237 -0.40233725309 0.25990989804 2.689675808 -4.8138232231 0.25391328335
          3.4680216312 -6.6779980659 -0.5331158638 8.1050243378 -7.4961104393 0.37000408769
          0.34660893679 -3.082113266 -0.44938918948 1.9702832699 -2.9357635975 0.45601078868
          0 0 0 0.6971347332 -2.9038558006 0.14807312191
          3.4651706219 -6.7235293388 -0.26841124892 -0.12070888281 -0.65666371584 0.050705626607
          0.28848508 -3.0585665703 -0.16986551881 6.3980321884 -7.1672530174 0.33277341723
          3.9354119301 -4.9524302483 0.61346322298 0.54843723774 -1.4491609335 0.19458346069
          9.2023525238 -9.3313627243 -0.66522920132 0 0 0
          1.2137483358 -4.648144722 -1.7341480998e-06 7.3984866142 -9.0290498734 -0.61676943302
          9.2353773117 -9.3696374893 -0.33411073685 0 0 0
          0.095565065742 -0.82610934973 -0.12000789493 7.4289922714 -9.0704612732 -0.30792981386
          3.4661200047 -6.7442030907 1.5600130965e-08 0.053023129702 -0.86789119244 -0.041819185019
          0.012639422901 -1.7647166252 0.092908203602 0.29885712266 -3.1072173119 -3.6591789012e-06
          4.8866691589 -6.9043531418 0.29739886522 5.7563486099 -8.7874231339 -0.5664525032
          0.092785447836 -1.8872610331 -0.1777870208 9.2428827286 -9.3839912415 5.282406164e-06
          0 0 0 0.062807872891 -1.9361988306 -0.1118414849
          5.7777833939 -8.8284502029 -0.2833403945 7.4378771782 -9.0856189728 3.7707052343e-06
          0.047424022108 -0.88263362646 -1.89542925e-06 2.7159409523 -4.7394804955 0.50262278318
          2.059845686 -6.5290198326 -0.52226376534 8.0636692047 -7.4409542084 0.73526322842
          0 0 0 0.71016150713 -4.7223587036 -0.50138413906
          1.2184739113 -4.6252160072 0.20738832653 0.74462878704 -2.777879715 0.26517122984
          6.3616671562 -7.1097297668 0.664462924 -0.047742158175 -0.56669205427 0.1510284394
          0.73342907429 -4.7268638611 -0.21824659407 2.0392355919 -6.5598978996 -0.24583753943
          3.4651722908 -6.7235264778 0.26841133833 0.28848701715 -3.0585644245 0.16985848546
          5.783762455 -8.8437185287 2.2317815365e-06 0.066351607442 -1.9530003071 -3.2264665606e-06
          4.2243118286 -8.6112985611 -0.5216678381 0.036562755704 -3.3144292831 -0.32497385144
          0.11851339787 -1.7329392433 0.26271274686 9.2353782654 -9.3696346283 0.33412134647
          4.8704018593 -6.848742485 0.59468901157 0 0 0
          2.0194427967 -6.571378231 -1.4645099782e-06 0.72744643688 -4.7507805824 -3.5332820971e-06
          4.237906456 -8.6513500214 -0.26168438792 7.4289937019 -9.0704584122 0.30793738365
          0.051725637168 -3.3305752277 -0.18729281425 0.05302317813 -0.86789011955 0.041815381497
          1.2662258148 -4.5667819977 0.42918047309 4.2384033203 -8.6671419144 6.467591902e-07
          5.7777848244 -8.8284463882 0.28334486485 0.06280747056 -1.9361975193 0.1118350029
          0.18001849949 -3.2664763927 -4.5081033022e-06 10.252024651 -11.255800247 -0.62131440639
          0 0 0 10.275303841 -11.288032532 -0.31145107746
          3.4680242538 -6.6779923439 0.53311604261 8.3693599701 -10.970854759 -0.57985520363
          0.34661149979 -3.0821084976 0.44938233495 1.1068210602 -6.4967656136 -0.38355448842
          0.053048033267 -0.9306641221 -0.066903546453 0.73343122005 -4.7268614769 0.21823962033
          2.0392379761 -6.5598950386 0.245834589 0 0 0
          8.3921403885 -11.006240845 -0.2889893651 1.1493666172 -6.5678510666 -0.20908305049
          0.027956603095 -0.96501708031 -0.029335780069 2.8564958572 -8.4536523819 -0.46959078312
          0.16036248207 -5.0178952217 -0.46387520432 9.2023563385 -9.3313560486 0.66523993015
          0 0 0 7.3984899521 -9.0290441513 0.61677712202
          10.282553673 -11.299998283 6.5767271735e-06 0.18750965595 -5.037624836 -0.20736436546
          2.8648538589 -8.5025997162 -0.23330871761 0.095563732088 -0.82610815763 0.12000445276
          6.6001672745 -10.741848946 -0.53303658962 0.053300663829 -2.0560569763 -0.11238490045
          0 0 0 4.2379083633 -8.6513462067 0.26168566942
          0.051724616438 -3.3305742741 0.18728417158 8.3991174698 -11.018574715 4.8735842029e-06
          1.1551927328 -6.5728640556 -3.1171014143e-06 6.620880127 -10.77818203 -0.26553797722
          0.03318445757 -2.1051156521 -0.058033689857 0.027223935351 -0.9747313261 -1.4745900216e-06
          5.7563519478 -8.7874174118 0.56645709276 0.092783883214 -1.8872591257 0.1777805239
          2.8603682518 -8.5149536133 -1.0378014395e-06 0.20891296864 -5.0325317383 -5.7581237343e-06
          2.0598495007 -6.5290141106 0.5222607255 6.6257648468 -10.790505409 3.1440536077e-06
          0.037508487701 -2.1101148129 -3.0069770673e-06 0.71016442776 -4.7223534584 0.5013769865
          10.275305748 -11.288028717 0.31146425009 4.9631686211 -10.580717087 -0.48644185066
          0 0 0 0.061127275229 -3.4137051105 -0.13399864733
          4.981133461 -10.614881516 -0.24048672616 8.3921422958 -11.00623703 0.28899914026
          0.027956355363 -0.96501660347 0.029332980514 1.1493680477 -6.5678482056 0.20907661319
          0.045934770256 -3.4852490425 -0.082853935659 4.2243151665 -8.6112918854 0.5216691494
          1.4325802326 -8.3275346756 -0.32749700546 2.8648555279 -8.5025968552 0.23330660164
          0.036560297012 -3.3144271374 0.32496792078 0.18751139939 -5.0376224518 0.20735287666
          0.47787135839 -6.820207119 -0.43505179882 1.4455997944 -8.4068670273 -0.18268559873
          4.9833898544 -10.623958588 1.3645264971e-06 6.6208820343 -10.778178215 0.26554429531
          0.03318388015 -2.1051151752 0.05802777037 0.44049364328 -6.8221464157 -0.17728622258
          0.029228081927 -3.4892957211 -4.4605712901e-06 11.255399704 -13.20834446 -0.60023784637
          0 0 0 0.0057159415446 -0.98316258192 -0.018335692585
          1.4722114801 -8.4310712814 -2.9956333947e-06 3.4862573147 -10.488012314 -0.42577269673
          9.2946901321 -12.930250168 -0.55433595181 10.252028465 -11.255793571 0.62132769823
          0 0 0 0 0 0
          0.48657092452 -6.8546309471 -5.6985563788e-06 0.11254668981 -4.9968090057 -0.12932258844
          11.269292831 -13.242787361 -0.30016747117 3.4896891117 -10.509813309 -0.21515423059
          9.3098297119 -12.967114449 -0.27563878894 8.3693637848 -10.970848083 0.57986503839
          -0.0017470692983 -1.0154881477 -0.0074864584021 1.1068236828 -6.4967589378 0.38354748487
          0.053046397865 -0.93066370487 0.066900610924 0.094750344753 -5.0948915482 -0.086393550038
          4.9811353683 -10.614877701 0.24048946798 0.045934602618 -3.4852480888 0.082845181227
          7.3972229958 -12.712586403 -0.50274413824 2.8564991951 -8.4536457062 0.46958851814
          0.16036489606 -5.017888546 0.46386361122 0 0 0
          -0.0062624891289 -2.1336083412 -0.027676656842 11.275323868 -13.25488472 7.9672172433e-06
          -0.001992699923 -1.02301085 -1.1939995375e-06 3.4891364574 -10.512263298 -5.2317864174e-07
          7.4127116203 -12.746968269 -0.24862886965 6.6001710892 -10.74184227 0.53304302692
          9.3150444031 -12.979115486 6.0781217144e-06 0.053298451006 -2.0560562611 0.11237934977
          0.086144849658 -5.1048035622 -5.7935803852e-06 -0.01369023975 -2.1834988594 -0.014922444709
          1.4456009865 -8.4068632126 0.18267971277 0.44049528241 -6.8221430779 0.17727507651
          0.7948024869 -8.6770210266 -0.51816469431 7.4147877693 -12.755027771 4.1646248974e-06
          -0.01775185205 -2.197832346 -2.6341099328e-06 0.77463203669 -8.6292495728 -0.19924496114
          5.622197628 -12.595606804 -0.449539572 0 0 0
          -0.018858924508 -3.4799785614 -0.028380451724 11.269294739 -13.242783546 0.30018344522
          -0.0017473687185 -1.0154881477 0.0074841231108 3.4896907806 -10.509810448 0.21515324712
          5.6332011223 -12.622819901 -0.21867722273 4.9631724358 -10.580709457 0.48644465208
          9.3098325729 -12.967110634 0.27565097809 1.9009305239 -10.391202927 -0.42628788948
          0.19412325323 -6.7403182983 -0.13076631725 0.061125885695 -3.4137034416 0.13399007916
          -0.024960000068 -3.5455491543 -0.013151630759 0.094750382006 -5.0948896408 0.086382128298
          1.8690861464 -10.391170502 -0.19513876736 0.14627256989 -6.8513717651 -0.12519994378
          0.80936121941 -8.683221817 -5.515392786e-06 1.432582736 -8.3275270462 0.32749137282
          7.4127135277 -12.746964455 0.2486372292 0.47787413001 -6.8202004433 0.43504071236
          5.628153801 -12.630472183 2.2260228434e-06 -0.013690813445 -2.183498621 0.014917200431
          -0.027825724334 -3.56640172 -4.1211937969e-06 1.8526148796 -10.387985229 -2.4735722945e-06
          0.15504257381 -6.8536014557 -6.7291384767e-06 -0.016501380131 -5.0300569534 -0.020976971835
          4.0121073723 -12.590563774 -0.43076685071 11.255403519 -13.20833683 0.60025388002
          0 0 0 0.77463400364 -8.6292457581 0.19923435152
          0.0057143061422 -0.98316264153 0.018333166838 -0.027329981327 -5.1092066765 -0.010158310644
          3.4862606525 -10.488005638 0.42577183247 9.2946949005 -12.930242538 0.55434823036
          4.0197916031 -12.599805832 -0.20675550401 12.246398926 -15.208796501 -0.59611850977
          0 0 0 0.11254562438 -4.9968056679 0.12931232154
          12.252669334 -15.24985218 -0.29733774066 -0.041145663708 -0.99862420559 0.02887137793
          10.197638512 -14.928735733 -0.53955256939 5.6332030296 -12.622815132 0.21868170798
          0 0 0 -0.024960627779 -3.5455486774 0.013143477961
          10.205276489 -14.971378326 -0.26848173141 -0.033584926277 -1.029061079 0.012113215402
          1.8690885305 -10.391167641 0.19513396919 0.14627341926 -6.851369381 0.12518657744
          7.3972272873 -12.712578773 0.5027525425 -0.032346557826 -5.1357731819 -5.5085511121e-06
          4.0185551643 -12.606607437 2.5078233534e-07 -0.0062647196464 -2.1336083412 0.027671502903
          1.1625715494 -10.634806633 -0.52425283194 -0.075501687825 -2.1547029018 0.03742492944
          8.1586790085 -14.70097065 -0.47844272852 0.095664910972 -9.0073480606 -0.55997103453
          12.257053375 -15.26346302 9.4650431492e-06 0 0 0
          1.2075386047 -10.61302948 -0.21940952539 10.208409309 -14.98477459 7.3835626608e-06
          -0.033564317971 -1.0369775295 -9.5765039987e-07 8.1722078323 -14.739727974 -0.23509688675
          -0.070328600705 -2.1990046501 0.020061925054 0.14113275707 -8.9535722733 -0.28479480743
          0.79480558634 -8.6770124435 0.51815462112 1.2005158663 -10.615038872 -4.75644174e-06
          -0.023365499452 -6.8119497299 -0.05038164556 -0.027330391109 -5.1092057228 0.010147549212
          2.6460242271 -12.623521805 -0.46249654889 8.1766929626 -14.747889519 5.2767791203e-06
          5.6222014427 -12.595599174 0.44954413176 4.0197935104 -12.599802017 0.20675604045
          0.17365583777 -8.9404430389 -7.8165749073e-06 -0.06894711405 -2.2135682106 -2.2131116566e-06
          -0.018861191347 -3.4799780846 0.028372753412 12.252672195 -15.249848366 0.29735669494
          6.1976766586 -14.587433815 -0.41352593899 -0.030445413664 -6.8953127861 -0.02490994893
          -0.10276957601 -3.4930343628 0.046274144202 2.6140954494 -12.608839989 -0.21382163465
          1.9009346962 -10.391196251 0.42628353834 0.19412341714 -6.7403144836 0.13075442612
          0 0 0 -0.099486649036 -3.5462701321 0.025016313419
          10.205278397 -14.971374512 0.26849651337 -0.033585250378 -1.0290611982 -0.012115116231
          6.1848630905 -14.605652809 -0.20589292049 -0.034663870931 -6.9223847389 -6.6820648499e-06
          2.5633811951 -12.59053421 -1.7851278926e-06 1.2075405121 -10.613025665 0.21940031648
          6.1563191414 -14.599480629 3.1834774745e-06 -0.099883429706 -3.564940691 -3.5617943013e-06
          8.1722106934 -14.739724159 0.23510748148 -0.070329286158 -2.1990046501 -0.020066360012
          0.14113463461 -8.9535694122 0.28477936983 -0.016503192484 -5.0300559998 0.020966878161
          4.012111187 -12.590555191 0.43076744676 4.4974417686 -14.582588196 -0.38412687182
          12.246403694 -15.208787918 0.59613758326 0 0 0
          -0.12178683281 -5.0325622559 0.054166194052 -0.041147183627 -0.99862456322 -0.028873547912
          10.19764328 -14.928728104 0.53956747055 -0.030445547774 -6.8953113556 0.024896871299
          2.6140980721 -12.608836174 0.21381808817 4.4866719246 -14.594956398 -0.18735682964
          0.41502338648 -10.983627319 -0.51948165894 -0.1189243868 -5.0907168388 0.029844343662
          -0.0994874686 -3.5462698936 -0.025023346767 6.1848649979 -14.605648041 0.20589932799
          0.45120054483 -10.975315094 -0.23128455877 1.4975630045 -12.66400528 -0.37459903955
          0.05124111101 -8.7580518723 -0.023199025542 13.245574951 -17.289295197 -0.60116034746
          0 0 0 11.094680786 -17.003519058 -0.53551387787
          1.1625747681 -10.63479805 0.52424293756 -0.075503960252 -2.1547033787 -0.037429347634
          8.1586837769 -14.700962067 0.47845342755 0.027609344572 -8.8815383911 -0.060113672167
          1.5172116756 -12.690477371 -0.20727169514 0.095667794347 -9.0073394775 0.55995577574
          13.24631691 -17.336997986 -0.29963505268 0 0 0
          -0.12009037286 -5.1127414703 -4.8276965572e-06 4.4534487724 -14.602882385 1.108079914e-06
          -0.087647005916 -0.98282188177 0.073020033538 11.09683609 -17.052381516 -0.26688629389
          -0.066308513284 -1.0120372772 0.030487902462 0.47382718325 -10.952334404 -7.3912701737e-06
          8.9297237396 -16.754774094 -0.46506029367 0.029603257775 -8.8858919144 -7.4432737165e-06
          1.5278840065 -12.691887856 -4.0951990741e-06 13.248602867 -17.352561951 1.1091254237e-05
          0 0 0 -0.14292927086 -2.1217215061 0.095588892698
          8.9360542297 -16.803489685 -0.23085987568 11.098749161 -17.067825317 8.792614608e-06
          -0.023366523907 -6.8119478226 0.050369367003 2.6460280418 -12.623513222 0.4624928534
          -0.065007418394 -1.0194555521 -7.2692148478e-07 -0.12844741344 -2.1627161503 0.049157772213
          6.1976809502 -14.587425232 0.4135324657 -0.1027720347 -3.4930348396 -0.046280950308
          -0.11857185513 -6.7643251419 0.069869600236 3.1401588917 -14.597687721 -0.3894393146
          -0.11892517656 -5.0907168388 -0.029853859916 4.4866743088 -14.594952583 0.18735906482
          -0.11967193335 -6.8334665298 0.034992828965 3.1481523514 -14.598566055 -0.19673754275
          0.45120215416 -10.975311279 0.23127013445 8.9389839172 -16.818227768 6.4621335696e-06
          -0.12334036082 -2.1759617329 -1.7495423208e-06 6.7264156342 -16.573894501 -0.39578905702
          0.027609167621 -8.8815355301 0.060098826885 1.5172131062 -12.690472603 0.20726343989
          13.246319771 -17.336994171 0.29965725541 0 0 0
          -0.17963476479 -3.4405739307 0.1078620255 6.7337751389 -16.605754852 -0.19756779075
          11.096838951 -17.052375793 0.26690390706 -0.17129252851 -3.4871788025 0.05596377328
          -0.12116479874 -6.8577847481 -5.9335538936e-06 3.1405718327 -14.60340786 -1.0261765055e-06
          -0.06630885601 -1.0120373964 -0.030489370227 8.9360570908 -16.803483963 0.23087285459
          6.73198843 -16.606298447 4.1754378799e-06 -0.16832570732 -3.5031619072 -2.8789652333e-06
          4.4974460602 -14.582579613 0.3841291368 0.77994269133 -12.984484673 -0.48489534855
          -0.1284481138 -2.1627163887 -0.049161303788 -0.12178912759 -5.0325622559 -0.054175261408
          0.053537979722 -10.843566895 -0.088305830956 0.79347521067 -12.955512047 -0.19856126606
          0.41502684355 -10.983618736 0.5194670558 0.039329968393 -10.927731514 -0.12379652262
          -0.11967261881 -6.833466053 -0.03500450775 3.1481544971 -14.598562241 0.19673545659
          1.4975659847 -12.663995743 0.37459111214 0.051240343601 -8.7580490112 0.02318523638
          -0.19768032432 -4.9531579018 0.11727303267 4.8896121979 -16.569595337 -0.34269165993
          13.245580673 -17.28928566 0.6011826396 0 0 0
          11.094685555 -17.003509521 0.53553158045 -0.19269683957 -5.0016407967 0.060707565397
          0.81275075674 -12.984933853 -6.515959285e-06 -0.11343215406 -8.6684179306 0.079561166465
          1.8575409651 -14.584688187 -0.41503381729 4.8480119705 -16.545246124 -0.17570142448
          -0.087648361921 -0.98282235861 -0.073021784425 0.12635095417 -10.851200104 -7.987265235e-06
          6.733777523 -16.60574913 0.1975762099 -0.17129343748 -3.4871790409 -0.055969499052
          1.8371622562 -14.557455063 -0.19277444482 -0.11401772499 -8.7456932068 0.041643567383
          8.929728508 -16.754764557 0.4650734067 -0.19148804247 -5.0196166039 -3.9666247176e-06
          4.7663736343 -16.50658989 2.0384168238e-06 -0.14293138683 -2.1217222214 -0.09559250623
          1.8050806522 -14.529632568 -3.2349632875e-06 14.2569561 -19.476964951 -0.60856860876
          0 0 0 -0.10931155831 -8.7692899704 -6.8550939432e-06
          14.254990578 -19.528678894 -0.303617239 0 0 0
          0.79347670078 -12.955507278 0.19854848087 11.997152328 -19.186834335 -0.53848487139
          -0.11857383698 -6.7643251419 -0.069880664349 3.1401627064 -14.597679138 0.38943728805
          -0.13458067179 -0.93682068586 0.11809695512 0.039329361171 -10.92773056 0.12378077954
          11.99554348 -19.239486694 -0.26896244287 -0.10009217262 -0.96605336666 0.049393001944
          6.7264204025 -16.573884964 0.39579766989 14.255581856 -19.545656204 1.2871082617e-05
          -0.19269779325 -5.0016407967 -0.060715418309 9.7134237289 -18.92555809 -0.4665210247
          -0.21167553961 -2.0361392498 0.15394297242 4.8480143547 -16.54524231 0.1757055223
          0 0 0 3.5888879299 -16.597455978 -0.38314798474
          -0.196340397 -6.6569852829 0.12716825306 -0.17963717878 -3.4405748844 -0.10786766559
          -0.18883812428 -2.0768594742 0.079076327384 9.7146034241 -18.980819702 -0.23292207718
          11.995936394 -19.256958008 1.0316122825e-05 1.8371647596 -14.557451248 0.19276802242
          -0.1915730238 -6.7051768303 0.066752694547 3.5853743553 -16.56731987 -0.18435792625
          -0.11401832849 -8.7456922531 -0.04165699333 -0.097927868366 -0.972661376 -5.0333687796e-07
          0.051173511893 -13.273156166 -0.48021644354 9.7166223526 -18.999015808 7.7225276982e-06
          0.77994585037 -12.984475136 0.48488286138 -0.18049499393 -2.0887317657 -1.283874326e-06
          -0.19147671759 -6.7244300842 -4.9343057071e-06 0.12014478445 -13.265687943 -0.23138834536
          3.5730865002 -16.544746399 -1.3561678713e-07 0.053536564112 -10.843564987 0.088292084634
          14.254992485 -19.528673172 0.3036429882 7.3830285072 -18.683115005 -0.3866340816
          -0.10399267823 -10.739998817 0.068115822971 0 0 0
          -0.25673455 -3.3196525574 0.16984133422 1.0744206905 -14.794576645 -0.42963114381
          -0.24614821374 -3.365634203 0.087243154645 7.4006032944 -18.73956871 -0.19334855676
          11.995546341 -19.239480972 0.26898309588 -0.10607476532 -10.8228302 0.031976323575
          1.1157939434 -14.789632797 -0.20224499702 -0.10009251535 -0.96605360508 -0.049394045025
          -0.1976827383 -4.9531593323 -0.11728063971 4.8896160126 -16.569587708 0.34269583225
          0.13571436703 -13.245396614 -8.6039308371e-06 -0.11343382299 -8.6684179306 -0.079573795199
          1.8575458527 -14.584679604 0.41502767801 7.4170117378 -18.758657455 5.1692823035e-06
          9.7146062851 -18.98081398 0.23293757439 -0.12558341026 -10.835625648 -7.5697571447e-06
          -0.18883880973 -2.0768597126 -0.079078949988 -0.24117457867 -3.3800039291 -2.1770745207e-06
          -0.19157393277 -6.7051768303 -0.066762439907 3.5853762627 -16.567316055 0.18435770273
          1.1058529615 -14.761989594 -5.2634277381e-06 2.4688489437 -16.605924606 -0.40323197842
          -0.17123018205 -8.5386962891 0.14132466912 2.4352653027 -16.582826614 -0.18857200444
          -0.16724734008 -8.5858268738 0.073710158467 14.256960869 -19.476955414 0.60859441757
          0 0 0 0.12014508247 -13.265683174 0.23137110472
          -0.27609530091 -4.7997698784 0.17452424765 5.205083847 -18.499008179 -0.31073310971
          -0.27244070172 -4.8453946114 0.089396633208 11.997157097 -19.186824799 0.53850567341
          -0.13458183408 -0.93682122231 -0.11809829623 5.185095787 -18.499364853 -0.17928184569
          7.4006061554 -18.739562988 0.19335900247 -0.10607482493 -10.822829247 -0.031991180032
          -0.24614912271 -3.3656346798 -0.087247520685 1.1157951355 -14.789628983 0.20223459601
          2.3773238659 -16.552940369 -2.280157787e-06 -0.1699552536 -8.6068725586 -5.735303148e-06
          9.713429451 -18.925548553 0.46653667092 -0.21167740226 -2.0361402035 -0.15394574404
          3.588891983 -16.597446442 0.38314777613 -0.27064669132 -4.8604412079 -3.0530413824e-06
          -0.19634260237 -6.6569862366 -0.12717762589 5.110622406 -18.488857269 2.8931331144e-06
          15.277035713 -21.784275055 -0.61393135786 0 0 0
          0.051175739616 -13.273146629 0.48019903898 2.4352676868 -16.582820892 0.18856747448
          0 0 0 12.904862404 -21.492692947 -0.54343891144
          -0.089232452214 -12.814982414 0.16930654645 -0.16724807024 -8.5858268738 -0.07372148335
          -0.18387338519 -0.86065220833 0.16717655957 0.36217620969 -15.070055008 -0.4015609026
          15.274502754 -21.836965561 -0.3066726923 7.3830337524 -18.683105469 0.38664481044
          12.902030945 -21.545856476 -0.27210727334 -0.13571493328 -0.8889503479 0.070345059037
          -0.10399327427 -10.73999691 -0.068130195141 -0.13761080801 -12.951469421 -0.018643336371
          -0.25673675537 -3.3196539879 -0.16984573007 4.1004915237 -18.486429214 -0.36599549651
          -0.2724416852 -4.8453950882 -0.089402712882 1.0744234324 -14.794568062 0.42961981893
          -0.26547670364 -6.4714517593 0.17533490062 5.1850981712 -18.499359131 0.17928771675
          0.39370816946 -15.095700264 -0.16083666682 -0.26468780637 -6.5129084587 0.089406460524
          4.0883750916 -18.471860886 -0.14951595664 10.517027855 -21.22502327 -0.47405821085
          15.273896217 -21.854463577 1.4823783204e-05 -0.28473693132 -1.901877284 0.2179698348
          0 0 0 10.514765739 -21.282436371 -0.23685981333
          -0.25426030159 -1.9405138493 0.11237373203 12.901507378 -21.564043045 1.1965248632e-05
          1.3634736538 -16.572896957 -0.35507118702 -0.085675351322 -12.972553253 -8.3031927716e-06
          0.39126780629 -15.067512512 -7.7804388638e-06 -0.12410663813 -10.546596527 0.16506905854
          -0.1333489269 -0.89389592409 -3.0055224443e-07 1.3665696383 -16.601303101 -0.15577299893
          4.0494651794 -18.469644547 6.6313930347e-07 -0.12502843142 -10.600739479 0.087364889681
          -0.26352596283 -6.5287532806 -3.8184412006e-06 2.4688527584 -16.605916977 0.40322721004
          10.515694618 -21.301916122 9.0618277682e-06 -0.17123195529 -8.5386972427 -0.14133553207
          -0.24270646274 -1.9499467611 -8.5171012643e-07 8.0969905853 -20.968648911 -0.38963520527
          15.274504662 -21.836959839 0.30670237541 1.3498444557 -16.626907349 -4.5127167141e-06
          -0.34817412496 -3.1389582157 0.23745471239 -0.27609759569 -4.7997717857 -0.17453026772
          -0.13199025393 -10.624164581 -6.4554169512e-06 5.2050881386 -18.498998642 0.31073927879
          0 0 0 8.1055240631 -21.037595749 -0.19634506106
          -0.33392709494 -3.1849343777 0.12384989113 12.902033806 -21.545850754 0.27213123441
          -0.13761070371 -12.95146656 0.018626693636 0.39370816946 -15.095695496 0.16082148254
          -0.1357152611 -0.88895052671 -0.070345714688 4.0883779526 -18.471855164 0.14951735735
          -0.26468884945 -6.5129089355 -0.089414052665 10.5147686 -21.282430649 0.23687797785
          8.1176204681 -21.063694 6.1898399508e-06 2.9381165504 -18.476928711 -0.36159032583
          -0.21209859848 -8.3072147369 0.17150118947 -0.32781630754 -3.1959383488 -1.5212214066e-06
          -0.25426095724 -1.9405142069 -0.11237551272 -0.21028128266 -8.3451652527 0.091879934072
          1.3665703535 -16.601297379 0.15576393902 2.9039814472 -18.442733765 -0.16156645119
          -0.12502887845 -10.600739479 -0.087377615273 5.6425871849 -20.638614655 -0.26130929589
          15.277041435 -21.784263611 0.61396110058 0 0 0