<?xml version="1.0"?>
<VTKFile type="UnstructuredGrid" version="0.1" byte_order="LittleEndian" header_type="UInt32" compressor="vtkZLibDataCompressor">
  <UnstructuredGrid>
    <Piece NumberOfPoints="6405" NumberOfCells="4800">
      <PointData>
        <DataArray type="Float32" Name="DISPLACEMENT" NumberOfComponents="3" ComponentName0="X-DISPLACEMENT" ComponentName1="Y-DISPLACEMENT" ComponentName2="Z-DISPLACEMENT" format="ascii" RangeMin="0" RangeMax="246.3151942">
          0 0 0 0 0 0
          1.9732244015 -1.1999634504 -0.91511291265 0 0 0
          1.2815331221 -0.70432060957 -0.71220970154 0 0 0
          1.8002415895 -1.3233841658 -0.36431759596 1.1144589186 -0.80650520325 -0.29052835703
          0 0 0 3.5452167988 -2.1874110699 -0.94226711988
          0 0 0 3.4931242466 -2.3341448307 -0.48660457134
          2.5749239922 -1.7877178192 -0.78712791204 0 0 0
          0 0 0 1.8063844442 -1.3658274412 1.0278357649e-06
          0.93927359581 -0.4715475142 -0.55051463842 1.1099795103 -0.82743096352 5.4122102711e-07
          2.5192244053 -1.9049711227 -0.40194311738 0.80685788393 -0.56680440903 -0.22330337763
          3.453779459 -2.3756718636 2.2935498691e-06 1.8817696571 -1.4532748461 -0.6185104847
          0 0 0 2.4847669601 -1.9439103603 1.3555476244e-06
          1.8251032829 -1.5619575977 -0.31720969081 0 0 0
          4.9816451073 -3.455514431 -0.88831353188 0 0 0
          0.800106287 -0.58481633663 1.4246005264e-08 0 0 0
          0 0 0 1.8002414703 -1.3233833313 0.36431962252
          3.7943515778 -3.0692620277 -0.75383406878 4.9954767227 -3.5633852482 -0.45310628414
          0.6609261632 -0.30470049381 -0.37338835001 1.1144592762 -0.80650430918 0.29052948952
          3.8060522079 -3.1709039211 -0.38421937823 0.57971483469 -0.40728512406 -0.154918015
          1.7955645323 -1.5911961794 3.1766222719e-07 3.493124485 -2.3341431618 0.4866092205
          0 0 0 0 0 0
          1.2937084436 -1.2354153395 -0.4373832643 2.8420572281 -2.7624042034 -0.62128710747
          4.9829821587 -3.602656126 3.8423668229e-06 2.5192251205 -1.9049690962 0.401945889
          2.8350429535 -2.8591172695 -0.31547150016 0.80685824156 -0.56680333614 0.22330346704
          3.7972831726 -3.2049894333 2.4271212169e-06 1.2372707129 -1.3414182663 -0.22423994541
          0.59058862925 -0.4218249917 -6.8610796689e-07 0 0 0
          6.3236851692 -4.8984355927 -0.80000728369 0 0 0
          4.9532213211 -4.5429034233 -0.69719392061 1.8251041174 -1.561955452 0.31721040606
          6.3587670326 -4.9787902832 -0.40490019321 1.9732252359 -1.1999620199 0.91511499882
          0 0 0 0 0 0
          1.2180060148 -1.3681533337 -8.3795583805e-07 2.8256013393 -2.8891215324 9.1030688054e-07
          0.23121353984 -0.20200437307 -0.1668266207 4.9846673012 -4.6224064827 -0.35170018673
          1.2815344334 -0.70431870222 0.71221107244 1.9781048298 -2.5560352802 -0.48619678617
          0 0 0 4.9954776764 -3.5633826256 0.45311403275
          0.18179009855 -0.32753542066 -0.084209561348 1.9523425102 -2.6438269615 -0.24770130217
          3.8060534 -3.1709010601 0.38422429562 0.57971531153 -0.40728390217 0.15491677821
          3.7834293842 -4.2548880577 -0.59557932615 0.48742800951 -1.1039797068 -0.27148076892
          6.3598017693 -5.006925106 5.6105773183e-06 3.5452184677 -2.1874074936 0.94227194786
          0 0 0 0 0 0
          3.7974936962 -4.3326892853 -0.30038839579 2.5749263763 -1.7877138853 0.78713083267
          4.9894223213 -4.6500048637 3.7378883917e-06 0.4306153059 -1.2053744793 -0.1426974088
          0.93927437067 -0.47154524922 0.55051493645 0.20563989878 -0.35888049006 -1.5890232135e-06
          1.9427571297 -2.6721417904 -7.3136976653e-07 2.8350441456 -2.8591141701 0.3154733777
          1.2372716665 -1.3414161205 0.22423833609 3.798435688 -4.3591151237 1.7620571953e-06
          1.8817713261 -1.4532706738 0.61851137877 0.42342692614 -1.2355973721 -2.0530833353e-06
          2.6995623112 -4.0471739769 -0.49795669317 6.3587679863 -4.9787869453 0.40491145849
          4.9816479683 -3.4555089474 0.8883215189 0 0 0
          7.5602688789 -6.4809732437 -0.72445338964 0 0 0
          0 0 0 0.98705482483 -2.412457943 -0.39472222328
          2.698656559 -4.1215472221 -0.25163084269 7.5955834389 -6.5412130356 -0.36402717233
          6.0441179276 -6.1498975754 -0.64548397064 4.9846687317 -4.622402668 0.35170772672
          0.043453533202 -0.36392432451 -0.18199019134 0 0 0
          3.7943546772 -3.0692563057 0.75383913517 0.66092646122 -0.30469793081 0.37338733673
          0.952070117 -2.4862177372 -0.19092682004 0.18179120123 -0.32753396034 0.084206663072
          -0.025601517409 -0.41402813792 -0.067438624799 1.9523439407 -2.6438238621 0.24769990146
          6.0763130188 -6.2121734619 -0.32343357801 3.7974953651 -4.3326854706 0.30039197206
          2.6961445808 -4.1483006477 -3.3903364738e-07 7.6017823219 -6.5625109673 7.5810380622e-06
          0.19790838659 -1.276358366 -0.3154053092 0.43061694503 -1.2053720951 0.14269334078
          0 0 0 4.6994476318 -5.8734359741 -0.56507903337
          1.2937097549 -1.2354108095 0.43738186359 2.8420598507 -2.7623980045 0.62128919363
          0.94184035063 -2.5126225948 -2.5261642804e-06 6.0846815109 -6.2337946892 5.2709656302e-06
          -0.0040305964649 -0.4770244956 -3.5472689888e-06 0.18650540709 -1.3177834749 -0.12902703881
          4.7189040184 -5.9364981651 -0.28352349997 6.3236889839 -4.8984284401 0.80001872778
          0 0 0 1.6504280567 -3.8822295666 -0.4133464992
          4.9532251358 -4.5428962708 0.69720160961 0.19235411286 -1.3646942377 -4.631469892e-06
          1.6393167973 -3.9569816589 -0.2015119046 4.7239971161 -5.9583234787 2.8445629141e-06
          0.2312143892 -0.20200149715 0.16682417691 2.6986584663 -4.1215429306 0.25163021684
          3.4540636539 -5.6511406898 -0.48328781128 7.5955848694 -6.541208744 0.36404237151
          0.43081444502 -2.4402186871 -0.29218831658 1.9781069756 -2.5560288429 0.48619556427
          0 0 0 0.95207226276 -2.4862143993 0.19092181325
          3.4611721039 -5.7159414291 -0.24273557961 -0.025599231943 -0.41402676702 0.067432031035
          0.44239136577 -2.5190250874 -0.14139486849 6.0763149261 -6.2121691704 0.32344415784
          3.7834329605 -4.2548799515 0.59558302164 0.48742994666 -1.1039748192 0.27147689462
          8.7010650635 -8.1644535065 -0.66665911674 0 0 0
          1.6267020702 -3.9791202545 -2.6033394533e-06 7.0691838264 -7.855992794 -0.60361647606
          8.7301464081 -8.2123861313 -0.33405554295 0 0 0
          0.069566324353 -0.60976701975 -0.12595507503 7.0961418152 -7.9065070152 -0.30152305961
          3.4610316753 -5.7375640869 3.1606614925e-07 0.037839803845 -0.64949864149 -0.045397911221
          0.18650795519 -1.3177810907 0.12901802361 0.43352651596 -2.5439321995 -5.125993539e-06
          4.7189064026 -5.9364933968 0.28352925181 5.5814013481 -7.5963349342 -0.53778469563
          -0.0055931997485 -1.4855811596 -0.126696527 8.7370204926 -8.2293024063 9.7376996564e-06
          0 0 0 -0.03850447759 -1.5434567928 -0.081735484302
          5.5997257233 -7.6481728554 -0.26874268055 7.104203701 -7.9240961075 7.0037995101e-06
          0.029400886968 -0.66336447001 -2.9690143037e-06 2.6995651722 -4.0471653938 0.49795621634
          2.2822115421 -5.4689612389 -0.38848686218 7.5602731705 -6.4809641838 0.72446870804
          0 0 0 0.67234545946 -3.7873780727 -0.24102410674
          1.6393193007 -3.9569776058 0.20150668919 0.98705780506 -2.4124510288 0.39471739531
          6.0441226959 -6.1498885155 0.64549463987 0.043454740196 -0.36392015219 0.18198403716
          0.67070508003 -3.8826553822 -0.13669224083 2.277089119 -5.5400381088 -0.19614139199
          3.4611742496 -5.7159366608 0.24273625016 0.44239407778 -2.5190217495 0.141384691
          5.6053543091 -7.6659488678 4.1342809709e-06 -0.04171551764 -1.558175087 -5.745677754e-06
          4.1981220245 -7.3943066597 -0.46966663003 -0.18889892101 -2.6230247021 -0.2226049453
          0.1979111135 -1.2763520479 0.3153963685 8.7301483154 -8.2123813629 0.33407503366
          4.6994519234 -5.8734264374 0.56508493423 0 0 0
          2.2743737698 -5.5600161552 -2.3163931928e-06 0.66763442755 -3.9001345634 -5.0785097301e-06
          4.2059073448 -7.4456510544 -0.23407100141 7.0961441994 -7.90650177 0.3015370965
          -0.22093363106 -2.6806378365 -0.096227914095 0.037840109318 -0.64949703217 0.045392189175
          1.6504318714 -3.8822209835 0.4133413136 4.208304882 -7.4617695808 1.1673030258e-06
          5.5997281075 -7.6481676102 0.2687509954 -0.038503184915 -1.5434542894 0.081723973155
          -0.21002404392 -2.7060923576 -8.5344136096e-06 9.7646379471 -9.9245500565 -0.62595158815
          0 0 0 9.7863969803 -9.9660139084 -0.31328207254
          3.4540677071 -5.6511311531 0.48328861594 8.0345745087 -9.6353340149 -0.57130581141
          0.4308181107 -2.4402108192 0.29217809439 0.94925618172 -5.3377590179 -0.26321530342
          0.019051864743 -0.76836788654 -0.060883022845 0.67070770264 -3.8826510906 0.13668200374
          2.2770915031 -5.5400333405 0.19613681734 0 0 0
          8.0552492142 -9.6791419983 -0.28483638167 0.93737739325 -5.4191679955 -0.14251495898
          -0.0047331312671 -0.7994582057 -0.024590553716 2.8697986603 -7.2529139519 -0.39522707462
          -0.022743223235 -3.9827105999 -0.28345626593 8.7010698318 -8.1644430161 0.66667860746
          0 0 0 7.0691890717 -7.8559818268 0.60363048315
          9.7925205231 -9.9805335999 1.2051140402e-05 -0.072951100767 -4.0021238327 -0.11174412817
          2.8602151871 -7.297097683 -0.19910116494 0.06956448406 -0.60976415873 0.1259496063
          6.4154038429 -9.3986721039 -0.51393657923 -0.035892479122 -1.7268199921 -0.092492632568
          0 0 0 4.205909729 -7.445646286 0.2340734005
          -0.22093035281 -2.6806342602 0.096211053431 8.0616044998 -9.6941595078 8.8995066108e-06
          0.9471603632 -5.4422183037 -4.9868394854e-06 6.4318890572 -9.4426517487 -0.25568917394
          -0.057015907019 -1.7695719004 -0.041892766953 -0.0068346229382 -0.80689328909 -2.9674183679e-06
          5.5814061165 -7.5963244438 0.53779309988 -0.0055940924212 -1.4855766296 0.12668636441
          2.8596520424 -7.3103742599 -1.8415570366e-06 -0.051803432405 -4.0401153564 -8.7402258941e-06
          2.2822155952 -5.4689517021 0.38848239183 6.4366102219 -9.4573793411 5.5991908994e-06
          -0.06528224051 -1.786028266 -6.2422914198e-06 0.67234951258 -3.7873692513 0.24101369083
          9.7863988876 -9.9660081863 0.31330615282 4.8933444023 -9.2341566086 -0.45839989185
          0 0 0 -0.084565483034 -2.8462183475 -0.11173588037
          4.9036474228 -9.2737369537 -0.22734557092 8.0552511215 -9.6791362762 0.28485414386
          -0.0047332448885 -0.7994568944 0.024584880099 0.93737989664 -5.4191627502 0.14250510931
          -0.1047424823 -2.8988263607 -0.0553108491 4.1981267929 -7.3942961693 0.46966925263
          1.3868037462 -7.1337132454 -0.35492032766 2.8602178097 -7.2970929146 0.19909764826
          -0.18889470398 -2.6230156422 0.2225882262 -0.07294729352 -4.0021195412 0.11172701418
          0.23596213758 -5.5376620293 -0.38161554933 1.3582646847 -7.1664452553 -0.16935437918
          4.9058675766 -9.2869634628 2.2221299787e-06 6.4318914413 -9.4426460266 0.25570037961
          -0.057016007602 -1.7695695162 0.041880451143 0.20949484408 -5.5242776871 -0.14820955694
          -0.1182404533 -2.9128005505 -9.1921983767e-06 10.775598526 -11.747489929 -0.60049539804
          0 0 0 -0.0038293940015 -0.8663457036 -0.024991294369
          1.3530284166 -7.1787314415 -4.7416606321e-06 3.4383528233 -9.1417760849 -0.41416844726
          8.9524421692 -11.469984055 -0.54718929529 9.7646417618 -9.9245376587 0.62597560883
          0 0 0 0 0 0
          0.22108414769 -5.5609312057 -8.9247760116e-06 -0.19191385806 -4.1379404068 -0.10874518007
          10.790480614 -11.787511826 -0.30013793707 3.4392747879 -9.1700849533 -0.20601285994
          8.9670963287 -11.511662483 -0.27232426405 8.034579277 -9.6353225708 0.57132351398
          -0.014444939792 -0.89001750946 -0.0090964082628 0.94926029444 -5.3377490044 0.26320570707
          0.019048959017 -0.76836580038 0.060877215117 -0.22436547279 -4.2015399933 -0.099523901939
          4.903649807 -9.2737321854 0.22735008597 -0.10474205762 -2.8988232613 0.055292766541
          7.2018971443 -11.248970032 -0.48953899741 2.8698031902 -7.2529039383 0.39522388577
          -0.022738045081 -3.9827013016 0.28343966603 0 0 0
          -0.044182088226 -1.8633275032 -0.038109436631 10.795566559 -11.801251411 1.4453928998e-05
          -0.016543503851 -0.89691996574 -2.9024872674e-06 3.4405901432 -9.1827049255 -1.1652550711e-06
          7.215089798 -11.289583206 -0.24213692546 6.4154086113 -9.3986606598 0.51394784451
          8.9714870453 -11.525099754 1.0881389244e-05 -0.035895489156 -1.7268160582 0.092480845749
          -0.20790031552 -4.2069439888 -1.140112272e-05 -0.05586618185 -1.8978998661 -0.017905365676
          1.3582687378 -7.1664404869 0.16934515536 0.20949958265 -5.5242729187 0.1481924057
          0.57232099771 -7.261133194 -0.39405605197 7.2168874741 -11.301433563 7.1752060649e-06
          -0.060653746128 -1.9098690748 -6.3685406531e-06 0.59104520082 -7.2707018852 -0.17575657368
          5.5405621529 -11.107415199 -0.43378213048 0 0 0
          -0.11085175723 -3.015745163 -0.048502124846 10.790480614 -11.787504196 0.30016675591
          -0.01444547344 -0.89001661539 0.0090907467529 3.4392776489 -9.1700801849 0.20601071417
          5.5520401001 -11.14193058 -0.21303278208 4.8933491707 -9.2341451645 0.45840457082
          8.9670982361 -11.511655807 0.27234596014 2.0198259354 -9.0557632446 -0.41240650415
          -0.45355308056 -5.7977099419 -0.40505570173 -0.084567472339 -2.8462126255 0.11171909422
          -0.12559147179 -3.0598447323 -0.024852965027 -0.22436323762 -4.2015361786 0.099501140416
          1.9980891943 -9.0709486008 -0.19321072102 -0.44485151768 -5.7764115334 -0.17293767631
          0.5895934701 -7.2891631126 -8.5316851255e-06 1.3868100643 -7.1337032318 0.35491201282
          7.2150917053 -11.289577484 0.24215123057 0.23596853018 -5.5376515388 0.38159918785
          5.5501065254 -11.152760506 3.3795085983e-06 -0.055867258459 -1.8978981972 0.017892720178
          -0.1285803616 -3.0745944977 -9.8420896393e-06 1.9739943743 -9.0734472275 -4.2917795327e-06
          -0.34483224154 -5.7742595673 -1.4537868083e-05 -0.20186257362 -4.369893074 -0.080704845488
          3.9907240868 -11.031232834 -0.39771091938 10.775602341 -11.747475624 0.60052400827
          0 0 0 0.59105032682 -7.2706971169 0.17573988438
          -0.0038330375683 -0.86634427309 0.024985194206 -0.21432816982 -4.4191961288 -0.039345901459
          3.43835783 -9.1417646408 0.41416671872 8.9524469376 -11.469970703 0.54721075296
          3.9983258247 -11.057273865 -0.19487845898 11.759708405 -13.63506794 -0.58787149191
          0 0 0 -0.19191253185 -4.1379337311 0.10872516781
          11.768284798 -13.677042961 -0.29337638617 -0.023506499827 -0.91433733702 0.0053965086117
          9.841794014 -13.360123634 -0.53048425913 5.5520424843 -11.141924858 0.21303963661
          0 0 0 -0.12559232116 -3.0598425865 0.02483363077
          9.8510494232 -13.403317451 -0.26376527548 -0.023970501497 -0.93436080217 0.0027274296153
          1.9980947971 -9.0709447861 0.19320222735 -0.44484448433 -5.7764086723 0.17291279137
          7.2019014359 -11.24895668 0.48955321312 -0.2150195688 -4.4319748878 -1.2923235772e-05
          3.9930224419 -11.067917824 -3.2876900491e-07 -0.044187039137 -1.8633248806 0.0380971618
          0.86117345095 -9.0321578979 -0.31493008137 -0.062679767609 -1.9412305355 0.0028038863093
          7.9573273659 -13.136835098 -0.46800377965 -0.22026838362 -7.5113921165 -0.38272801042
          11.771881104 -13.690958977 1.6805433916e-05 0 0 0
          0.8807002902 -9.0743055344 -0.174311921 9.854300499 -13.416710854 1.2812450223e-05
          -0.024600213394 -0.94015836716 -2.8313543226e-06 7.964548111 -13.176029205 -0.23020520806
          -0.065460428596 -1.9710377455 0.0025838247966 -0.21052053571 -7.5187907219 -0.17572380602
          0.57232815027 -7.2611222267 0.39403966069 0.88667541742 -9.0740222931 -7.4918202699e-06
          -0.25098189712 -5.8848166466 -0.083509296179 -0.21432806551 -4.4191932678 0.039320740849
          2.6055688858 -10.969594955 -0.37135565281 7.9635396004 -13.183176041 8.7442331278e-06
          5.5405664444 -11.107402802 0.43378910422 3.9983286858 -11.057268143 0.19487792253
          -0.18259595335 -7.5245523453 -1.3084578313e-05 -0.066468961537 -1.9813011885 -6.4003597799e-06
          -0.11085613817 -3.0157413483 0.048483785242 11.768284798 -13.677035332 0.29340985417
          6.1507196426 -13.00239563 -0.39757150412 -0.26478216052 -5.9577798843 -0.065859615803
          -0.11163440347 -3.1179072857 -0.0012667699484 2.6059112549 -10.992013931 -0.1834192127
          2.0198347569 -9.0557537079 0.41239827871 -0.45354649425 -5.7976984978 0.40503060818
          0 0 0 -0.11596802622 -3.1549341679 0.00077278638491
          9.8510494232 -13.403310776 0.26379072666 -0.023971294984 -0.93436026573 -0.0027330063749
          6.1442575455 -13.031731606 -0.19134479761 -0.28074851632 -5.9556941986 -1.4841507436e-05
          2.5958268642 -10.997722626 -3.8679013414e-06 0.88070476055 -9.0743017197 0.17429684103
          6.1264638901 -13.033732414 4.6246223064e-06 -0.11813784391 -3.1676211357 -1.0126863344e-05
          7.9645485878 -13.17602253 0.23022259772 -0.065462045372 -1.971036911 -0.0025965939276
          -0.21051453054 -7.518787384 0.17569813132 -0.2018648684 -4.3698878288 0.080681033432
          3.9907295704 -11.03122139 0.39771074057 4.5135803223 -12.947889328 -0.35606399179
          11.759710312 -13.635052681 0.58790451288 0 0 0
          -0.1580016315 -4.4635529518 -0.0021657478064 -0.023510629311 -0.91433656216 -0.0054027135484
          9.841796875 -13.360108376 0.53050929308 -0.26478093863 -5.9577770233 0.065829508007
          2.6059160233 -10.992010117 0.18341171741 4.5006537437 -12.968905449 -0.16548380256
          0.042198859155 -9.2936086655 -0.3912088573 -0.1659437865 -4.5094127655 -0.0019741293509
          -0.11596978456 -3.1549329758 -0.00079277681652 6.1442594528 -13.031725883 0.19135399163
          0.028551639989 -9.277677536 -0.15792119503 1.1721549034 -10.889958382 -0.3162920773
          -0.38770145178 -7.5359725952 -0.06396933645 12.735813141 -15.603013039 -0.58390015364
          0 0 0 10.719717979 -15.32612133 -0.52255475521
          0.86118078232 -9.0321474075 0.31491431594 -0.062685698271 -1.9412292242 -0.0028164982796
          7.9573302269 -13.136820793 0.46802088618 -0.4027902782 -7.6236743927 -0.11437160522
          1.1694031954 -10.921291351 -0.1565155983 -0.22026012838 -7.5113806725 0.38270327449
          12.739557266 -15.64745903 -0.2911170423 0 0 0
          -0.16960738599 -4.5244364738 -1.3532256162e-05 4.4748239517 -12.977201462 4.6952303023e-07
          -0.043559934944 -0.9264088273 0.031956672668 10.723351479 -15.371500969 -0.26028591394
          -0.034674171358 -0.94499146938 0.013419021852 0.058164395392 -9.3038330078 -1.3045494597e-05
          8.7089595795 -15.088524818 -0.45649847388 -0.34616810083 -7.6323471069 -1.6813755792e-05
          1.1766381264 -10.936423302 -7.5330221989e-06 12.741724968 -15.661922455 1.8865117454e-05
          0 0 0 -0.077774196863 -1.958995223 0.040742106736
          8.7137699127 -15.130933762 -0.22525759041 10.724967957 -15.385644913 1.4458215446e-05
          -0.25098139048 -5.884809494 0.083481647074 2.6055762768 -10.969584465 0.37134835124
          -0.034262545407 -0.9502967 -2.7558455713e-06 -0.072374656796 -1.9866424799 0.021302917972
          6.1507229805 -13.002383232 0.39758062363 -0.11164043099 -3.1179051399 0.0012475479161
          -0.21579627693 -5.9858698845 -0.0071322983131 3.0705280304 -12.936757088 -0.34568071365
          -0.165945068 -4.509411335 0.0019474551082 4.5006566048 -12.968900681 0.16548496485
          -0.22653070092 -6.0405144691 -0.0056101651862 3.0651345253 -12.940299034 -0.16634382308
          0.028559144586 -9.2776737213 0.15789663792 8.7171792984 -15.141020775 1.0125163499e-05
          -0.070633076131 -1.995839715 -6.3268962549e-06 6.7211575508 -14.929451942 -0.38863861561
          -0.40278559923 -7.6236710548 0.11433923244 1.1694082022 -10.921285629 0.15650132298
          12.739556313 -15.647450447 0.29115453362 0 0 0
          -0.1042887941 -3.1334631443 0.045512728393 6.6831212044 -14.951766968 -0.19035838544
          10.723350525 -15.371492386 0.26031461358 -0.10303521901 -3.1678786278 0.023822143674
          -0.22438204288 -6.0611834526 -1.6474723452e-05 3.0570297241 -12.943867683 -3.4807969769e-06
          -0.034675080329 -0.94499135017 -0.013424481265 8.713768959 -15.130926132 0.22527761757
          6.639816761 -14.943179131 5.8699197325e-06 -0.10287655145 -3.1795251369 -1.0125595509e-05
          4.5135850906 -12.947877884 0.35606560111 0.33157882094 -11.125806808 -0.4184268117
          -0.072376534343 -1.9866422415 -0.021315583959 -0.15800651908 -4.463549614 0.0021404717118
          -0.75287336111 -9.5688657761 -0.41875776649 0.33972844481 -11.106563568 -0.15942303836
          0.042209420353 -9.293598175 0.39118584991 -0.71993595362 -9.5414161682 -0.19785955548
          -0.22653074563 -6.0405125618 0.0055779996328 3.0651390553 -12.940296173 0.16633743048
          1.1721630096 -10.889948845 0.31627997756 -0.38769668341 -7.5359654427 0.06393981725
          -0.12452385575 -4.4776887894 0.046174574643 4.9726371765 -14.89842701 -0.33793902397
          12.735813141 -15.602994919 0.58393698931 0 0 0
          10.719717979 -15.326104164 0.52258276939 -0.12673835456 -4.5167918205 0.024526525289
          0.33540394902 -11.130509377 -1.253193841e-05 -0.29859164357 -7.7141656876 -0.042176760733
          1.6753211021 -12.917684555 -0.3780465126 4.8942737579 -14.8940382 -0.16604711115
          -0.043564237654 -0.9264087081 -0.031962852925 -0.37574657798 -9.4624319077 -1.5448975319e-05
          6.6831207275 -14.951760292 0.19036991894 -0.10303740948 -3.1678783894 -0.023842170835
          1.6225965023 -12.892448425 -0.16872887313 -0.29950135946 -7.7697477341 -0.02115191333
          8.7089595795 -15.088508606 0.456517905 -0.12752014399 -4.5309739113 -1.3716909052e-05
          4.7917795181 -14.875190735 1.279155299e-06 -0.077780559659 -1.9589951038 -0.040754720569
          1.5650075674 -12.866333008 -6.5123813329e-06 13.710963249 -17.667877197 -0.58360904455
          0 0 0 -0.28393182158 -7.7721567154 -1.8496102712e-05
          13.711544037 -17.713008881 -0.29114097357 0 0 0
          0.33973804116 -11.106560707 0.15939997137 11.594824791 -17.389795303 -0.5222299099
          -0.21579891443 -5.9858660698 0.007101860363 3.0705349445 -12.936748505 0.34567570686
          -0.062606111169 -0.9056610465 0.058010779321 -0.71992611885 -9.5414142609 0.19782651961
          11.595316887 -17.435493469 -0.26084187627 -0.044527813792 -0.92428833246 0.024146046489
          6.7211580276 -14.929439545 0.38864964247 13.712108612 -17.727798462 2.0287799998e-05
          -0.12674018741 -4.5167918205 -0.024553518742 9.4730348587 -17.141210556 -0.45974069834
          -0.092122465372 -1.9174802303 0.079114697874 4.8942761421 -14.894034386 0.16604982316
          0 0 0 3.5083069801 -14.898522377 -0.35517421365
          -0.13655431569 -6.0080156326 0.040795736015 -0.10429556668 -3.1334629059 -0.045532103628
          -0.079227887094 -1.9451110363 0.040208734572 9.4710979462 -17.188503265 -0.22978334129
          11.596316338 -17.450471878 1.5479830836e-05 1.6226073503 -12.892447472 0.16871649027
          -0.14050172269 -6.049724102 0.021743269637 3.493647337 -14.890114784 -0.17706555128
          -0.29949975014 -7.7697453499 0.021115517244 -0.043266676366 -0.92934507132 -2.6786435683e-06
          -0.51118552685 -11.392449379 -0.40399199724 9.4714918137 -17.205720901 1.0944084352e-05
          0.33159154654 -11.125796318 0.41840603948 -0.074896283448 -1.9540593624 -6.1638502302e-06
          -0.14081017673 -6.0646080971 -1.688408156e-05 -0.46598181129 -11.39494133 -0.17288435996
          3.4775524139 -14.883591652 -2.4712767299e-06 -0.75286155939 -9.5688552856 0.41872617602
          13.711541176 -17.712999344 0.2911812067 7.3124141693 -16.931705475 -0.40033629537
          -0.32835865021 -9.5486268997 -0.033119097352 0 0 0
          -0.10186094791 -3.0719995499 0.0904276371 0.6178637743 -12.991898537 -0.33862456679
          -0.095433577895 -3.1059360504 0.046646811068 7.3063511848 -16.971086502 -0.203701213
          11.59531498 -17.435483932 0.26087251306 -0.31889930367 -9.6281099319 -0.053625348955
          0.64452290535 -13.003858566 -0.17832919955 -0.044528719038 -0.92428857088 -0.024151358753
          -0.12452983856 -4.4776883125 -0.046200338751 4.9726409912 -14.898416519 0.33794236183
          -0.44448634982 -11.370391846 -1.7498638044e-05 -0.29859089851 -7.7141604424 0.042142517865
          1.6753371954 -12.917679787 0.37803578377 7.3036928177 -16.981517792 6.7515479714e-06
          9.4710941315 -17.188495636 0.22980490327 -0.35436701775 -9.6179914474 -1.9958690245e-05
          -0.07922975719 -1.9451115131 -0.040221076459 -0.093269228935 -3.1168532372 -9.8686105048e-06
          -0.14050270617 -6.0497236252 -0.021776491776 3.4936523438 -14.890111923 0.17706093192
          0.63874012232 -12.983387947 -9.86710711e-06 2.2191205025 -14.871519089 -0.35891157389
          -0.12971974909 -7.7148442268 0.036989688873 2.191290617 -14.861825943 -0.17501479387
          -0.13536681235 -7.7615895271 0.015058184974 13.710959435 -17.667856216 0.58364838362
          0 0 0 -0.46597075462 -11.39494133 0.17285171151
          -0.092198893428 -4.4027061462 0.094907291234 5.334798336 -16.826688766 -0.34581366181
          -0.091532759368 -4.4402389526 0.048402160406 11.594820976 -17.38977623 0.52225953341
          -0.062610343099 -0.90566158295 -0.058016810566 5.2654476166 -16.826608658 -0.19601708651
          7.3063468933 -16.971078873 0.20371428132 -0.31889593601 -9.6281080246 0.053586281836
          -0.095435738564 -3.1059365273 -0.046666320413 0.64453184605 -13.003857613 0.17831043899
          2.1501038074 -14.84064579 -5.5034347497e-06 -0.13851995766 -7.7764291763 -1.9662260456e-05
          9.4730300903 -17.14119339 0.45976126194 -0.09212873131 -1.917481184 -0.079127006233
          3.5083153248 -14.89851284 0.35517057776 -0.091243565083 -4.4521350861 -1.3312008377e-05
          -0.13655857742 -6.0080151558 -0.040827143937 5.1355118752 -16.792894363 2.4446580937e-06
          14.683893204 -19.835365295 -0.58333075047 0 0 0
          -0.51117038727 -11.392439842 0.40396094322 2.191300869 -14.861824036 0.17500422895
          0 0 0 12.470415115 -19.557601929 -0.52459275723
          -0.52745610476 -11.377086639 0.0047204149887 -0.13536649942 -7.7615890503 -0.015096649528
          -0.07721003145 -0.85040634871 0.086211815476 -0.21740205586 -13.23543644 -0.35352355242
          14.683588028 -19.879247665 -0.29143151641 7.3124084473 -16.931692123 0.40034842491
          12.469297409 -19.601877213 -0.26257300377 -0.050079636276 -0.86985224485 0.035436082631
          -0.32835420966 -9.5486211777 0.033082284033 -0.50780451298 -11.486124039 -0.10302331299
          -0.10186761618 -3.0720009804 -0.090446531773 3.9474961758 -16.797546387 -0.35381317139
          -0.091534592211 -4.4402399063 -0.048428427428 0.61787676811 -12.991892815 0.33860439062
          -0.070884563029 -5.922431469 0.088718995452 5.2654495239 -16.826604843 0.19602145255
          -0.21902126074 -13.246286392 -0.1300573051 -0.073716104031 -5.9617214203 0.046791542321
          3.9594824314 -16.804410934 -0.16300629079 10.24973011 -19.303785324 -0.46766757965
          14.683314323 -19.893810272 2.0661502276e-05 -0.10297650099 -1.8196511269 0.11824044585
          0 0 0 10.247253418 -19.350318909 -0.23497231305
          -0.082215934992 -1.8483368158 0.060354042798 12.469187737 -19.617168427 1.5462122974e-05
          0.90353953838 -14.807984352 -0.31254333258 -0.39631733298 -11.508503914 -1.9812283426e-05
          -0.2122771889 -13.242707253 -1.5866584363e-05 -0.13449236751 -9.5574636459 0.021850798279
          -0.04780998081 -0.875023067 -2.5922495297e-06 0.88553541899 -14.823553085 -0.14123730361
          3.9675953388 -16.806921005 -1.7987546244e-06 -0.13097342849 -9.617477417 0.018127242103
          -0.07343891263 -5.972659111 -1.6599964511e-05 2.2191331387 -14.871512413 0.35890117288
          10.247208595 -19.367607117 1.0759366887e-05 -0.12972164154 -7.7148427963 -0.037025973201
          -0.075373850763 -1.8570472002 -5.9226113081e-06 7.986017704 -19.064031601 -0.40669101477
          14.683582306 -19.879236221 0.291472435 0.85931640863 -14.828582764 -8.8405577117e-06
          -0.10032946616 -2.939565897 0.13939125836 -0.092204749584 -4.4027080536 -0.094932377338
          -0.11954174191 -9.644569397 -2.1796582587e-05 5.3348016739 -16.82667923 0.34581807256
          0 0 0 7.9969286919 -19.115322113 -0.20712634921
          -0.089201673865 -2.9742174149 0.070391602814 12.469292641 -19.601867676 0.26260349154
          -0.50779819489 -11.486122131 0.10298364609 -0.21900875866 -13.246287346 0.13002857566
          -0.050080403686 -0.86985290051 -0.035441208631 3.959487915 -16.80440712 0.16300350428
          -0.073717087507 -5.9617228508 -0.04682386294 10.247246742 -19.350309372 0.23499335349
          8.0140981674 -19.138837814 6.5474159783e-06 2.661888361 -16.791463852 -0.3313871026
          -0.028564307839 -7.6148686409 0.078003562987 -0.085024379194 -2.985470295 -9.3929975264e-06
          -0.082217536867 -1.8483380079 -0.060365889221 -0.026029879227 -7.6575312614 0.043958827853
          0.88554549217 -14.823551178 0.14122025669 2.6382186413 -16.771900177 -0.14799399674