<?xml version="1.0"?>
<VTKFile type="UnstructuredGrid" version="0.1" byte_order="LittleEndian" header_type="UInt32" compressor="vtkZLibDataCompressor">
  <UnstructuredGrid>
    <Piece NumberOfPoints="6405" NumberOfCells="4800">
      <PointData>
        <DataArray type="Float32" Name="DISPLACEMENT" NumberOfComponents="3" ComponentName0="X-DISPLACEMENT" ComponentName1="Y-DISPLACEMENT" ComponentName2="Z-DISPLACEMENT" format="ascii" RangeMin="0" RangeMax="245.35998175">
          0 0 0 0 0 0
          1.9581568241 -1.1870458126 -0.90880310535 0 0 0
          1.2757867575 -0.69428038597 -0.70896238089 0 0 0
          1.7858293056 -1.3087443113 -0.36196285486 1.109275341 -0.79512697458 -0.28921175003
          0 0 0 3.5201411247 -2.1586914062 -0.93722546101
          0 0 0 3.4677631855 -2.3037550449 -0.48403602839
          2.5640625954 -1.7607777119 -0.78422921896 0 0 0
          0 0 0 1.791798234 -1.3507908583 -1.2547611732e-06
          0.93852490187 -0.46138858795 -0.54942703247 1.1048035622 -0.81585806608 -5.2647493476e-07
          2.5081357956 -1.876568675 -0.40043917298 0.80612719059 -0.55560863018 -0.22293457389
          3.4286160469 -2.3448348045 -3.0307419365e-06 1.8795542717 -1.4274086952 -0.61786067486
          0 0 0 2.4737324715 -1.9150844812 -1.6350761598e-06
          1.8229836226 -1.5345009565 -0.31682959199 0 0 0
          4.9500136375 -3.4068911076 -0.88495868444 0 0 0
          0.79912465811 -0.57348483801 2.9424575132e-07 0 0 0
          0 0 0 1.7858290672 -1.3087455034 0.36196032166
          3.7796771526 -3.0217661858 -0.75182598829 4.9633131027 -3.5137426853 -0.45139119029
          0.65781122446 -0.293941468 -0.37365981936 1.1092745066 -0.7951284647 0.28921058774
          3.7909793854 -3.1223104 -0.38320711255 0.57814133167 -0.39486795664 -0.15468113124
          1.7936739922 -1.5632027388 -5.0987146949e-08 3.4677619934 -2.303757906 0.4840297699
          0 0 0 0 0 0
          1.2985640764 -1.2086035013 -0.43975511193 2.8399665356 -2.7146525383 -0.62083506584
          4.9508810043 -3.5526480675 -5.4057550187e-06 2.5081336498 -1.8765717745 0.40043571591
          2.8330466747 -2.8102452755 -0.31526127458 0.80612635612 -0.55561047792 0.22293499112
          3.7822089195 -3.1560258865 -3.3401997825e-06 1.2428022623 -1.3130156994 -0.22491066158
          0.59210062027 -0.40902122855 1.4757397366e-06 0 0 0
          6.2883005142 -4.8284893036 -0.79810512066 0 0 0
          4.9364871979 -4.4731612206 -0.69585776329 1.822981596 -1.5345045328 0.31682929397
          6.3231015205 -4.9083518982 -0.40389820933 1.9581551552 -1.1870480776 0.90880024433
          0 0 0 0 0 0
          1.2244399786 -1.3392481804 1.8140725615e-06 2.8237202168 -2.8399298191 -1.099354904e-06
          0.2350333035 -0.18534675241 -0.17002022266 4.9677405357 -4.552025795 -0.35106825829
          1.2757844925 -0.69428342581 0.70896065235 1.9876663685 -2.5058839321 -0.48753535748
          0 0 0 4.9633102417 -3.5137467384 0.45138013363
          0.18568114936 -0.30868542194 -0.084922552109 1.9626857042 -2.5928285122 -0.2483458519
          3.7909760475 -3.12231493 0.38320019841 0.57814019918 -0.3948700726 0.15468376875
          3.7824697495 -4.1836628914 -0.59506285191 0.50689339638 -1.0750852823 -0.27723190188
          6.3241963387 -4.9362592697 -8.332469406e-06 3.52013731 -2.1586966515 0.93721866608
          0 0 0 0 0 0
          3.7966849804 -4.2608513832 -0.30015653372 2.564057827 -1.7607839108 0.78422522545
          4.9724993706 -4.5793776512 -5.6944190874e-06 0.45102387667 -1.1745101213 -0.14470878243
          0.93852347136 -0.46139237285 0.54942697287 0.21394839883 -0.33932760358 3.061557436e-06
          1.9533082247 -2.6209206581 1.5026595293e-06 2.8330433369 -2.8102505207 0.31525892019
          1.2428001165 -1.3130196333 0.22491414845 3.7976984978 -4.2870721817 -2.9069287848e-06
          1.8795505762 -1.4274158478 0.6178599 0.4447722137 -1.2046134472 3.9228525566e-06
          2.714120388 -3.9723114967 -0.49801394343 6.323097229 -4.9083571434 0.40388128161
          4.9500069618 -3.4068992138 0.88494694233 0 0 0
          7.5231351852 -6.3904690742 -0.72296440601 0 0 0
          0 0 0 1.0140711069 -2.3593878746 -0.39619153738
          2.713799715 -4.0463075638 -0.25171390176 7.558699131 -6.4503941536 -0.36320722103
          6.026488781 -6.0590386391 -0.64426314831 4.9677352905 -4.552031517 0.35105660558
          0.067058622837 -0.33859494328 -0.18524251878 0 0 0
          3.7796697617 -3.0217752457 0.75181847811 0.65781039 -0.29394581914 0.37366187572
          0.98084318638 -2.432890892 -0.19216778874 0.18567866087 -0.30868789554 0.08492808044
          0.0014522039564 -0.38912317157 -0.068010285497 1.9626823664 -2.5928344727 0.24834872782
          6.0589065552 -6.1207990646 -0.32288065553 3.796680212 -4.2608580589 0.30015054345
          2.7114639282 -4.0729207993 2.9184693062e-07 7.5649647713 -6.4714918137 -1.1829357391e-05
          0.23178128898 -1.2364137173 -0.31404742599 0.4510204494 -1.1745145321 0.14471660554
          0 0 0 4.7011904716 -5.7797837257 -0.56439077854
          1.2985612154 -1.2086116076 0.43975815177 2.8399598598 -2.7146627903 0.62083214521
          0.97149181366 -2.4592020512 4.6354898586e-06 6.0673584938 -6.1421918869 -8.7461039584e-06
          0.027597114444 -0.45438787341 6.7200139711e-06 0.22267472744 -1.2807922363 -0.13006265461
          4.7207689285 -5.8424019814 -0.28322798014 6.2882905006 -4.828499794 0.79808741808
          0 0 0 1.6783246994 -3.8026027679 -0.41379418969
          4.9364767075 -4.4731726646 0.69584542513 0.23034892976 -1.3281012774 8.7777079898e-06
          1.6690818071 -3.8771190643 -0.20176324248 4.7259049416 -5.8640675545 -5.5515247368e-06
          0.23503136635 -0.18535169959 0.17002475262 2.7137951851 -4.0463151932 0.25171434879
          3.4731070995 -5.5517115593 -0.48299601674 7.5586924553 -6.4504003525 0.36318323016
          0.47023057938 -2.3777627945 -0.2917137146 1.9876608849 -2.5058956146 0.48753774166
          0 0 0 0.98083901405 -2.4328970909 0.19217699766
          3.4805307388 -5.6165633202 -0.24255242944 0.0014471283648 -0.38912534714 0.068022660911
          0.48165261745 -2.4565312862 -0.14207804203 6.0588994026 -6.1208062172 0.32286286354
          3.7824599743 -4.1836762428 0.59505629539 0.50688922405 -1.075094223 0.27723941207
          8.6619739532 -8.0558547974 -0.66391700506 0 0 0
          1.657715559 -3.899450779 4.2648812268e-06 7.0510191917 -7.7470254898 -0.60179156065
          8.6919822693 -8.1029720306 -0.3325984478 0 0 0
          -0.014603109099 -0.60002106428 -0.083424888551 7.078687191 -7.7965426445 -0.3006965816
          3.4804942608 -5.6382274628 -1.9380668164e-06 -0.034429997206 -0.63774383068 -0.061167106032
          0.2226690352 -1.2807966471 0.13007980585 0.47393783927 -2.4814858437 9.5739887911e-06
          4.7207622528 -5.8424100876 0.28321668506 5.5875549316 -7.4831242561 -0.53706544638
          -0.27031815052 -1.3783878088 -0.21467161179 8.6989097595 -8.1195220947 -1.595055619e-05
          0 0 0 -0.27419966459 -1.443380475 -0.088084228337
          5.6058678627 -7.5342264175 -0.268460989 7.0869326591 -7.8137550354 -1.2559468814e-05
          -0.0075028003193 -0.64199113846 7.2540506153e-06 2.714111805 -3.9723265171 0.49801397324
          2.3183600903 -5.3632597923 -0.38782411814 7.5231208801 -6.390481472 0.72293949127
          0 0 0 0.72160422802 -3.7013168335 -0.24370208383
          1.6690768003 -3.8771271706 0.20177166164 1.0140646696 -2.3594007492 0.39620047808
          6.0264749527 -6.0590524673 0.64424455166 0.067055657506 -0.33860230446 0.18525379896
          0.7210342288 -3.7958042622 -0.13685642183 2.3142170906 -5.4352874756 -0.19540901482
          3.4805245399 -5.6165723801 0.24254845083 0.48164635897 -2.4565377235 0.14209698141
          5.6115469933 -7.5517244339 -9.0698185886e-06 -0.092738673091 -1.5181010962 1.3334665709e-05
          4.2265124321 -7.2712903023 -0.46912533045 -0.12820580602 -2.5534791946 -0.221804142
          0.23177456856 -1.2364250422 0.3140642345 8.6919727325 -8.10297966 0.33256620169
          4.7011771202 -5.7797994614 0.56437885761 0 0 0
          2.3115861416 -5.4556031227 2.3840404992e-06 0.71750730276 -3.813393116 9.1531746875e-06
          4.2337036133 -7.322783947 -0.23398640752 7.0786776543 -7.7965502739 0.30067113042
          -0.15580755472 -2.6142277718 -0.096588507295 -0.034434020519 -0.63774645329 0.06117997691
          1.6783159971 -3.8026194572 0.41380229592 4.2358732224 -7.3388819695 -5.2147784118e-06
          5.6058588028 -7.5342359543 0.26844260097 -0.27421066165 -1.4433820248 0.088113345206
          -0.14325605333 -2.6431138515 1.5715464542e-05 9.7200536728 -9.8000812531 -0.61993503571
          0 0 0 9.7433691025 -9.8393821716 -0.31025356054
          3.4730951786 -5.5517296791 0.4829916358 8.0147838593 -9.5114488602 -0.56814903021
          0.47022128105 -2.3777775764 0.29173246026 1.0089247227 -5.2296924591 -0.25982904434
          0.014691667631 -0.7800334096 -0.07047162205 0.72102737427 -3.7958130836 0.13687454164
          2.3142108917 -5.435297966 0.19541379809 0 0 0
          8.0366392136 -9.5530319214 -0.28335833549 0.99829727411 -5.3128418922 -0.14078806341
          -0.011261683889 -0.80374521017 -0.028159406036 2.9129812717 -7.1148700714 -0.39330413938
          0.038396947086 -3.8840034008 -0.27783173323 8.6619548798 -8.0558681488 0.66388362646
          0 0 0 7.0510005951 -7.7470407486 0.60176515579
          9.7495088577 -9.8531446457 -2.0850102374e-05 -0.0097152581438 -3.9065349102 -0.11020998657
          2.9023766518 -7.161564827 -0.1979842633 -0.014602720737 -0.60002344847 0.083434015512
          6.4282398224 -9.2698698044 -0.51370584965 -0.0073908357881 -1.6546814442 -0.11258047074
          0 0 0 4.2336950302 -7.3227949142 0.2339758724
          -0.1558149755 -2.6142346859 0.096619747579 8.0432739258 -9.5673437119 -1.7264903363e-05
          1.0069925785 -5.3359942436 7.3976216299e-06 6.4444971085 -9.3120861053 -0.25576686859
          -0.027496179566 -1.7074992657 -0.052378445864 -0.0095188301057 -0.80527877808 5.892151421e-06
          5.5875368118 -7.4831418991 0.53704631329 -0.27032625675 -1.3784024715 0.21470122039
          2.9012167454 -7.1753425598 -7.2968327913e-07 0.0090503031388 -3.9426133633 1.4774649571e-05
          2.3183488846 -5.3632798195 0.3878287971 6.4492788315 -9.3263254166 -1.3501529793e-05
          -0.05352550745 -1.7282716036 1.0463963918e-05 0.72159296274 -3.7013349533 0.24371990561
          9.7433567047 -9.839389801 0.31021144986 4.935195446 -9.0933380127 -0.46005213261
          0 0 0 -0.076340191066 -2.7438476086 -0.143856287
          4.9440655708 -9.132396698 -0.22815352678 8.0366268158 -9.5530405045 0.28332340717
          -0.011263512075 -0.80374658108 0.028170282021 0.99828994274 -5.3128523827 0.14080306888
          -0.089680768549 -2.7990255356 -0.065222129226 4.2264962196 -7.2713108063 0.4691144526
          1.433570981 -6.9860563278 -0.34310218692 2.9023697376 -7.1615777016 0.1979830116
          -0.12821608782 -2.5534965992 0.22183570266 -0.0097222821787 -3.9065442085 0.11023965478
          0.30188468099 -5.4148693085 -0.37290713191 1.4065113068 -7.0246009827 -0.16611689329
          4.9461812973 -9.1452951431 -9.4447623269e-06 6.4444847107 -9.3120965958 0.25573953986
          -0.027498597279 -1.7075017691 0.052399359643 0.27343562245 -5.4050788879 -0.1448790729
          -0.09001788497 -2.8304152489 1.3609195776e-05 10.71786499 -11.605568886 -0.58967113495
          0 0 0 0.025018950924 -0.85939455032 -0.037862386554
          1.4038578272 -7.0384745598 4.7513376558e-06 3.4988920689 -8.9851255417 -0.41413855553
          8.9280042648 -11.331343651 -0.54196292162 9.7200298309 -9.8000955582 0.61989164352
          0 0 0 0 0 0
          0.28549531102 -5.4418787956 1.3031495655e-05 -0.11796590686 -4.0572319031 -0.13888017833
          10.734729767 -11.641490936 -0.29481294751 3.4964711666 -9.01334095 -0.20623573661
          8.944103241 -11.368973732 -0.26982522011 8.0147600174 -9.5114650726 0.56811290979
          0.007644562982 -0.88034826517 -0.015667213127 1.0089119673 -5.2297139168 0.25984436274
          0.014692412689 -0.78003388643 0.070481114089 -0.15370309353 -4.1148090363 -0.10239786655
          4.9440541267 -9.1324090958 0.2281344831 -0.089684829116 -2.799028635 0.06524913758
          7.2224531174 -11.106760025 -0.49027073383 2.9129674435 -7.1148948669 0.39330300689
          0.038386486471 -3.8840239048 0.27786242962 0 0 0
          0.001880658092 -1.8200447559 -0.063090011477 10.739862442 -11.653874397 -2.6856589102e-05
          0.0035452125594 -0.88741272688 3.6102976537e-06 3.4964230061 -9.0252227783 -4.8446877372e-06
          7.2355279922 -11.144032478 -0.24263224006 6.4282169342 -9.2698888779 0.51367753744
          8.9487409592 -11.381176949 -2.3113176212e-05 -0.0073914527893 -1.6546823978 0.11259823292
          -0.14724646509 -4.1203179359 1.5875304598e-05 -0.016367536038 -1.854357481 -0.028915144503
          1.4065059423 -7.0246148109 0.16612704098 0.27343001962 -5.4050908089 0.14490635693
          0.65408062935 -7.1155843735 -0.39549598098 7.2373504639 -11.155128479 -1.8949524019e-05
          -0.020135708153 -1.8673570156 6.5935787461e-06 0.66803050041 -7.1215538979 -0.17316818237
          5.6017951965 -10.952218056 -0.43935996294 0 0 0
          -0.044218678027 -2.94363451 -0.079534679651 10.734713554 -11.641497612 0.29475879669
          0.0076437061653 -0.88034802675 0.015673838556 3.4964618683 -9.0133552551 0.20622625947
          5.6115760803 -10.985028267 -0.21608835459 4.9351739883 -9.0933609009 0.46003252268
          8.9440870285 -11.368982315 0.26977854967 2.0607793331 -8.8797712326 -0.41255626082
          -0.34120756388 -5.6849918365 -0.41841381788 -0.076343134046 -2.7438499928 0.14387947321
          -0.062250338495 -2.9888119698 -0.038938384503 -0.15370877087 -4.1148147583 0.10242902488
          2.0366659164 -8.8951253891 -0.19095431268 -0.31854146719 -5.6557831764 -0.18981413543
          0.66657048464 -7.1428022385 1.1357336007e-05 1.4335595369 -6.9860835075 0.34311416745
          7.2355117798 -11.144042969 0.24259382486 0.30187451839 -5.414894104 0.37293606997
          5.6096997261 -10.995445251 -1.4626008124e-05 -0.016369113699 -1.8543571234 0.028927553445
          -0.068930998445 -3.0038194656 8.8787464847e-06 2.0134789944 -8.8994693756 1.2288770677e-06
          -0.30062192678 -5.6593360901 1.9426530343e-05 -0.11570172012 -4.2847986221 -0.11228497326
          4.0697245598 -10.858093262 -0.40406617522 10.717835426 -11.605582237 0.58961564302
          0 0 0 0.66802561283 -7.1215686798 0.17319203913
          0.025020057335 -0.85939180851 0.037867866457 -0.12906618416 -4.3309431076 -0.056098803878
          3.4988732338 -8.9851531982 0.41412934661 8.9279747009 -11.331359863 0.54191482067
          4.0756111145 -10.884007454 -0.19788865745 11.678786278 -13.466498375 -0.5719640851
          0 0 0 -0.11797036976 -4.0572361946 0.13890591264
          11.689474106 -13.502669334 -0.28560623527 0.0060701379552 -0.90241634846 -0.013592871837
          9.8063516617 -13.198841095 -0.52279669046 5.6115608215 -10.985041618 0.21605873108
          0 0 0 -0.062252819538 -2.9888119698 0.038955181837
          9.8171825409 -13.236178398 -0.25983458757 -0.0004294430837 -0.92123275995 -0.0048192595132
          2.0366640091 -8.8951435089 0.19095751643 -0.31854894757 -5.6557950974 0.18985672295
          7.2224225998 -11.106780052 0.49023091793 -0.13196076453 -4.3489832878 1.0880446098e-05
          4.0705957413 -10.894081116 -1.0092845514e-05 0.0018807001179 -1.8200399876 0.063100598752
          0.96618497372 -8.8511447906 -0.3228200376 -0.0059783100151 -1.9074430466 -0.023157767951
          7.9844093323 -12.979115486 -0.46824666858 -0.10645258427 -7.3548259735 -0.37804153562
          11.693357468 -13.514766693 -3.4485146898e-05 0 0 0
          0.98444265127 -8.8938159943 -0.1702464968 9.8205728531 -13.247525215 -3.049080442e-05
          -0.0013963779202 -0.927123487 1.1642202935e-06 7.9912147522 -13.012714386 -0.23028849065
          -0.013974949718 -1.9365103245 -0.010561064817 -0.091803751886 -7.3635449409 -0.17583966255
          0.65406811237 -7.1156129837 0.39552107453 0.98065000772 -8.8947515488 8.7834787337e-06
          -0.13497143984 -5.7855858803 -0.11842997372 -0.12907022238 -4.330945015 0.056119691581
          2.694401741 -10.778137207 -0.37715339661 7.9890327454 -13.018311501 -2.5656370781e-05
          5.6017656326 -10.952241898 0.43932914734 4.0755982399 -10.88402462 0.19786848128
          -0.072018526495 -7.3671808243 1.6656031221e-05 -0.017279785126 -1.9466260672 1.8094260668e-06
          -0.044220540673 -2.9436285496 0.07954890281 11.689455986 -13.50267601 0.28553682566
          6.2399916649 -12.832355499 -0.40827342868 -0.15278756618 -5.853120327 -0.081485621631
          -0.032442834228 -3.0624599457 -0.032894801348 2.6826622486 -10.800112724 -0.18343392015
          2.0607697964 -8.8798036575 0.41256019473 -0.34122037888 -5.6850185394 0.41845709085
          0 0 0 -0.040555704385 -3.0989096165 -0.015260673128
          9.8171634674 -13.236186028 0.25977307558 -0.00043013386312 -0.92123150826 0.0048212506808
          6.2327132225 -12.859086037 -0.19512936473 -0.1578540504 -5.8517403603 1.2497201169e-05
          2.6597633362 -10.802369118 -4.4648913899e-06 0.98443615437 -8.8938360214 0.17026478052
          6.2143669128 -12.861149788 -2.0571826099e-05 -0.043915566057 -3.1120328903 2.0783038508e-06
          7.9911932945 -13.012723923 0.23023638129 -0.013976307586 -1.9365082979 0.010564335622
          -0.091807700694 -7.3635625839 0.17587554455 -0.11570712179 -4.2847948074 0.11230284721
          4.0697002411 -10.858123779 0.40404579043 4.6278977394 -12.751643181 -0.36750933528
          11.678750038 -13.46651268 0.57189333439 0 0 0
          -0.054171293974 -4.3925557137 -0.038500420749 0.006069580093 -0.9024118185 0.013594132848
          9.8063144684 -13.198856354 0.52273356915 -0.15279224515 -5.8531274796 0.081509336829
          2.6826581955 -10.800134659 0.18342535198 4.6126561165 -12.774870872 -0.17006874084
          0.14876590669 -9.0984096527 -0.37532606721 -0.064645424485 -4.4373660088 -0.020174868405
          -0.040557853878 -3.0989077091 0.015264426358 6.2326908112 -12.859100342 0.19508682191
          0.1363157481 -9.0941486359 -0.15157411993 1.288552165 -10.695994377 -0.29895162582
          -0.24883258343 -7.4196338654 -0.10346312076 12.623035431 -15.390336037 -0.56444519758
          0 0 0 10.665974617 -15.123709679 -0.51177680492
          0.96616816521 -8.8511810303 0.32283642888 -0.0059800194576 -1.9074354172 0.023159993812
          7.984369278 -12.97913456 0.46819236875 -0.25608214736 -7.4950251579 -0.12224794924
          1.280372262 -10.732244492 -0.15567277372 -0.1064651534 -7.3548579216 0.3780811727
          12.628540993 -15.428567886 -0.28157570958 0 0 0
          -0.068315707147 -4.4519405365 2.0226752895e-06 4.5858659744 -12.783566475 -1.6349053112e-05
          -0.013117554598 -0.91301298141 0.011590182781 10.671409607 -15.162644386 -0.25452291965
          -0.010348971933 -0.93136507273 0.0050091422163 0.16103051603 -9.1171226501 9.0393932624e-06
          8.7301330566 -14.898910522 -0.45422393084 -0.21067124605 -7.4983649254 1.2468156456e-05
          1.2803964615 -10.741012573 1.9417129806e-06 12.631239891 -15.441038132 -4.4324464398e-05
          0 0 0 -0.020744441077 -1.9298808575 0.013904804364
          8.7342414856 -14.932806015 -0.22327843308 10.673406601 -15.174434662 -3.9818645746e-05
          -0.13497793674 -5.7855873108 0.11844855547 2.6943831444 -10.7781744 0.37714481354
          -0.010492468253 -0.93670666218 -1.3425891439e-06 -0.020216910169 -1.9575430155 0.0076294587925
          6.2399506569 -12.832380295 0.40822833776 -0.032446168363 -3.0624501705 0.032897271216
          -0.08628937602 -5.9026961327 -0.047705236822 3.1811592579 -12.715192795 -0.34474867582
          -0.064648263156 -4.4373650551 0.02017836459 4.6126379967 -12.774889946 0.17003531754
          -0.096628591418 -5.9534807205 -0.026349047199 3.1701385975 -12.724720001 -0.16828688979
          0.1363184154 -9.094171524 0.15159854293 8.73503685 -14.938076019 -3.4166438127e-05
          -0.020194590092 -1.9668445587 -3.2457660382e-06 6.8582110405 -14.745163918 -0.39571589231
          -0.25608915091 -7.4950361252 0.12227287143 1.28036654 -10.732265472 0.15567684174
          12.628520012 -15.428574562 0.28148666024 0 0 0
          -0.021600272506 -3.0888090134 0.013742046431 6.8114347458 -14.760755539 -0.18974040449
          10.671386719 -15.162652016 0.25444278121 -0.02421880886 -3.1235442162 0.0075633795932
          -0.095644749701 -5.9732022285 1.6028416212e-06 3.1558632851 -12.728273392 -1.2255088222e-05
          -0.010349628516 -0.93136364222 -0.0050118458457 8.734213829 -14.932813644 0.22320890427
          6.7567596436 -14.747999191 -2.772642074e-05 -0.025390841067 -3.1352722645 -5.4540992096e-06
          4.6278634071 -12.751677513 0.36747485399 0.44054815173 -10.92940712 -0.40442979336
          -0.020218331367 -1.9575408697 -0.0076360157691 -0.054176006466 -4.3925452232 0.038502205163
          -0.58688265085 -9.3666963577 -0.36009153724 0.43635350466 -10.905965805 -0.14855876565
          0.1487595886 -9.0984487534 0.3753567934 -0.53901332617 -9.3603172302 -0.1835078001
          -0.096631981432 -5.953482151 0.026351315901 3.1701281071 -12.724744797 0.16826300323
          1.2885342836 -10.69603157 0.29896140099 -0.24883906543 -7.4196400642 0.10347861797
          -0.01614654623 -4.4206662178 0.0093738129362 5.1397285461 -14.690443993 -0.35046982765
          12.622994423 -15.390351295 0.56435495615 0 0 0
          10.665929794 -15.123725891 0.51169490814 -0.021750653163 -4.4597215652 0.0053671980277
          0.42828863859 -10.924858093 1.5011613641e-07 -0.13969878852 -7.611951828 -0.080670543015
          1.7292734385 -12.673749924 -0.36357164383 5.0542497635 -14.68881321 -0.16806264222
          -0.013120096177 -0.91300815344 -0.011593393981 -0.24653981626 -9.3069133759 9.8291366157e-06
          6.8113970757 -14.760767937 0.1896828115 -0.024220664054 -3.123541832 -0.0075742346235
          1.6809360981 -12.659196854 -0.16012117267 -0.14111298323 -7.6612110138 -0.042842157185
          8.7300806046 -14.898927689 0.45415183902 -0.023336555809 -4.4740481377 -7.8511639003e-06
          4.9463715553 -14.672207832 -2.3685717679e-05 -0.020748581737 -1.9298727512 -0.01391147729
          1.6325320005 -12.642267227 -5.242325642e-06 13.56316185 -17.390611649 -0.56348985434
          0 0 0 -0.12601181865 -7.6664600372 3.7475908243e-07
          13.56486702 -17.430931091 -0.28105965257 0 0 0
          0.43636637926 -10.905994415 0.14856797457 11.517174721 -17.123285294 -0.50826656818
          -0.08629514277 -5.9026870728 0.047705192119 3.1811361313 -12.715237617 0.34472709894
          -0.033863317221 -0.8928180933 0.037769988179 -0.53901982307 -9.3603448868 0.18353536725
          11.519095421 -17.163806915 -0.25350362062 -0.021686220542 -0.91201901436 0.015757929534
          6.8581504822 -14.745188713 0.39565205574 13.566345215 -17.444040298 -5.662856347e-05
          -0.021752584726 -4.4597196579 -0.0053827865049 9.4749774933 -16.889593124 -0.45199862123
          -0.038880169392 -1.8929721117 0.052862823009 5.0542206764 -14.688835144 0.16801418364
          0 0 0 3.6255655289 -14.687896729 -0.35831984878
          -0.0016952832229 -5.9403362274 -0.0024371701293 -0.021605268121 -3.0887985229 -0.013752772473
          -0.03046615608 -1.9216142893 0.026733512059 9.4745359421 -16.92858696 -0.22475889325
          11.52025032 -17.17663765 -5.1345377869e-05 1.6809440851 -12.659229279 0.16011209786
          -0.0081913042814 -5.9816808701 -0.0014982401626 3.6051280499 -14.68193531 -0.17419330776
          -0.14111618698 -7.6612176895 0.042842283845 -0.020853890106 -0.91728597879 -3.806664381e-06
          -0.40294530988 -11.191215515 -0.40203517675 9.4753551483 -16.941122055 -4.509304199e-05
          0.44054955244 -10.92944622 0.40444907546 -0.027812991291 -1.9309642315 -8.2125043264e-06
          -0.0077889738604 -5.996931076 -1.0572023712e-05 -0.36119702458 -11.185667038 -0.17234557867
          3.5862936974 -14.67538166 -2.013161793e-05 -0.58689665794 -9.366733551 0.36013871431
          13.564845085 -17.430938721 0.28094610572 7.4572963715 -16.707700729 -0.40193676949
          -0.1569275409 -9.4286794662 -0.088104024529 0 0 0
          -0.025117628276 -3.036450386 0.059798315167 0.74794220924 -12.793657303 -0.35450834036
          -0.022218428552 -3.0719718933 0.030856681988 7.4257264137 -16.732587814 -0.20361220837
          11.519069672 -17.163816452 0.25340050459 -0.14436784387 -9.4958629608 -0.072512052953
          0.76209282875 -12.8017416 -0.16460181773 -0.021686743945 -0.9120182395 -0.01576525718
          -0.016151916236 -4.4206547737 -0.009389015846 5.1396780014 -14.690483093 0.35041734576
          -0.34100160003 -11.163781166 -4.0695817916e-06 -0.13970600069 -7.6119484901 0.080669827759
          1.729282856 -12.673807144 0.36356946826 7.3871583939 -16.732343674 -3.8735859562e-05
          9.4745035172 -16.928596497 0.22466763854 -0.16862383485 -9.4946146011 -1.9156218514e-06
          -0.030467379838 -1.9216130972 -0.02674965933 -0.021275473759 -3.0835072994 -1.2732904906e-05
          -0.0081927282736 -5.9816808701 0.0014773696894 3.6051175594 -14.681962013 0.17415414751
          0.73320525885 -12.788039207 -3.041862783e-06 2.314252615 -14.682872772 -0.36545655131
          0.029671788216 -7.6364421844 -0.015413457528 2.2521481514 -14.660484314 -0.1715541333
          0.0247323066 -7.6828079224 -0.013271823525 13.563117027 -17.390628815 0.56337547302
          0 0 0 -0.36116695404 -11.185709953 0.17235291004
          0.0088607138023 -4.3583579063 0.059446241707 5.5472636223 -16.616746902 -0.36409282684
          0.0060123070143 -4.3982219696 0.029777012765 11.51712513 -17.123304367 0.50816214085
          -0.033867646009 -0.89281439781 -0.037777524441 5.4625329971 -16.614936829 -0.20029261708
          7.4256677628 -16.732599258 0.20353347063 -0.14436617494 -9.4958791733 0.072507917881
          -0.022219641134 -3.0719709396 -0.03088161163 0.76210719347 -12.80177784 0.1646027565
          2.1695888042 -14.623226166 -1.3826854229e-05 0.027059219778 -7.701274395 -1.3772964849e-05
          9.4749193192 -16.889612198 0.45190495253 -0.038886208087 -1.8929659128 -0.052878171206
          3.6255431175 -14.687941551 0.35828363895 0.0058401501738 -4.4110894203 -1.7158345145e-05
          -0.0017004183028 -5.9403252602 0.0024170652032 5.3026485443 -16.580596924 -3.3301574149e-05
          14.504237175 -19.47826767 -0.56542146206 0 0 0
          -0.40293106437 -11.19125843 0.40204969049 2.2521624565 -14.660512924 0.17152930796
          0 0 0 12.366029739 -19.209850311 -0.5087146759
          -0.37127906084 -11.265695572 -0.031514193863 0.02473265864 -7.6828112602 0.01324461028
          -0.051584646106 -0.83976233006 0.067227125168 -0.12809608877 -13.042359352 -0.35168382525
          14.504141808 -19.520109177 -0.28225767612 7.4571986198 -16.707723618 0.40185427666
          12.365945816 -19.251714706 -0.25434392691 -0.029835375026 -0.86057144403 0.027442490682
          -0.15692844987 -9.4286851883 0.088093705475 -0.31311830878 -11.356791496 -0.13797342777
          -0.025123665109 -3.0364425182 -0.059821553528 4.0692286491 -16.600494385 -0.3613704145
          0.0060119652189 -4.3982219696 -0.02981052734 0.74794501066 -12.79370594 0.35450333357
          0.053224436939 -5.8735413551 0.044982977211 5.4624814987 -16.614957809 0.2002260834
          -0.11699677259 -13.055809021 -0.13446210325 0.048072934151 -5.9155712128 0.023019170389
          4.0618810654 -16.614908218 -0.16620270908 10.224046707 -18.970088959 -0.45398905873
          14.504754066 -19.53379631 -7.0909307397e-05 -0.057308234274 -1.8018237352 0.093620888889
          0 0 0 10.222971916 -19.011604309 -0.22765684128
          -0.040346965194 -1.8326456547 0.047673527151 12.366374016 -19.265676498 -6.4593725256e-05
          1.0196083784 -14.641926765 -0.30946362019 -0.1663326025 -11.371631622 -5.2129635151e-06
          -0.10629960895 -13.045753479 -1.223624713e-05 0.049755886197 -9.4663381577 -0.039592627436
          -0.027841104195 -0.8662416935 -6.0824972934e-06 1.0046145916 -14.653798103 -0.15180133283
          4.0479478836 -16.623298645 -2.7899755878e-05 0.062895931304 -9.5278148651 -0.017825268209
          0.049689218402 -5.9282565117 -2.1639061742e-05 2.3142559528 -14.682916641 0.36543253064
          10.222100258 -19.027194977 -5.7999572164e-05 0.029668785632 -7.6364345551 0.015386917628
          -0.034934911877 -1.8422628641 -1.2639755369e-05 8.071513176 -18.763269424 -0.40346801281
          14.504118919 -19.520120621 0.28211572766 0.96245568991 -14.636050224 -1.1089293366e-05
          -0.036923024803 -2.9148788452 0.11144388467 0.0088560739532 -4.3583502769 -0.059477295727
          0.078194223344 -9.5576219559 -1.7512926206e-05 5.5471868515 -16.616786957 0.36402237415
          0 0 0 8.0713596344 -18.79968071 -0.20869791508
          -0.028363507241 -2.9526555538 0.05596941337 12.365919113 -19.251728058 0.25421452522
          -0.3131133914 -11.356812477 0.13796041906 -0.11696262658 -13.055850983 0.13445337117
          -0.029835393652 -0.86057186127 -0.027454039082 4.0618758202 -16.614931107 0.1661491245
          0.048074182123 -5.9155726433 -0.023061346263 10.22293663 -19.011615753 0.22754044831
          8.0705337524 -18.815229416 -5.192244862e-05 2.7480874062 -16.601324081 -0.33274099231
          0.11080061644 -7.5594601631 0.02543679066 -0.025262657553 -2.9650349617 -1.9018827516e-05
          -0.040347266942 -1.8326467276 -0.047698281705 0.12083254009 -7.6089420319 0.011720511131
          1.0046287775 -14.653819084 0.15178188682 2.7158787251 -16.592849731 -0.15268149972