<?xml version="1.0"?>
<VTKFile type="UnstructuredGrid" version="0.1" byte_order="LittleEndian" header_type="UInt32" compressor="vtkZLibDataCompressor">
  <UnstructuredGrid>
    <Piece NumberOfPoints="6405" NumberOfCells="4800">
      <PointData>
        <DataArray type="Float32" Name="DISPLACEMENT" NumberOfComponents="3" ComponentName0="X-DISPLACEMENT" ComponentName1="Y-DISPLACEMENT" ComponentName2="Z-DISPLACEMENT" format="ascii" RangeMin="0" RangeMax="247.10680921">
          0 0 0 0 0 0
          1.9846317768 -1.2094333172 -0.9199616909 0 0 0
          1.2862958908 -0.71155142784 -0.71489870548 0 0 0
          1.8111255169 -1.3340879679 -0.36614319682 1.1187688112 -0.81466984749 -0.29162344337
          0 0 0 3.56437397 -2.2081046104 -0.94620192051
          0 0 0 3.5125157833 -2.3560521603 -0.48861151934
          2.5839953423 -1.8068555593 -0.78949981928 0 0 0
          0 0 0 1.817402482 -1.3768280745 1.7008783288e-06
          0.94045734406 -0.47876101732 -0.55184447765 1.1142792702 -0.83574688435 8.2068368101e-07
          2.5284936428 -1.9251617193 -0.40319091082 0.80800592899 -0.57470339537 -0.22375780344
          3.4730257988 -2.3978981972 3.5678024233e-06 1.8853399754 -1.470800519 -0.61921828985
          0 0 0 2.4939992428 -1.9644018412 1.9098592929e-06
          1.8286063671 -1.5807254314 -0.31763991714 0 0 0
          5.0059685707 -3.4906015396 -0.89089262486 0 0 0
          0.80149370432 -0.59281826019 -8.2501941279e-08 0 0 0
          0 0 0 1.8111250401 -1.3340864182 0.36614650488
          3.8067965508 -3.1033399105 -0.75548672676 5.0202913284 -3.5991709232 -0.45442992449
          0.66698300838 -0.31203025579 -0.37413865328 1.1187691689 -0.81466817856 0.29162508249
          3.8188619614 -3.2057259083 -0.38506346941 0.58448302746 -0.41598400474 -0.15558132529
          1.7988411188 -1.6103798151 1.4222429456e-07 3.5125155449 -2.3560488224 0.4886187017
          0 0 0 0 0 0
          1.2931388617 -1.2525484562 -0.43534523249 2.8464531898 -2.7962906361 -0.62181264162
          5.0077700615 -3.6386890411 5.7269867284e-06 2.5284943581 -1.925158143 0.40319478512
          2.8393263817 -2.8937699795 -0.31574383378 0.80800628662 -0.57470148802 0.22375769913
          3.810116291 -3.2400577068 3.267543434e-06 1.2362012863 -1.3599609137 -0.22374290228
          0.5925065279 -0.43082287908 -1.2809636019e-06 0 0 0
          6.3507823944 -4.9491195679 -0.80125695467 0 0 0
          4.9673604965 -4.5934820175 -0.69821816683 1.8286072016 -1.580721736 0.31764027476
          6.3862667084 -5.0296974182 -0.40556380153 1.9846326113 -1.2094304562 0.91996502876
          0 0 0 0 0 0
          1.2161183357 -1.3870663643 -1.7894171833e-06 2.8298017979 -2.9239742756 7.0734773772e-07
          0.23462957144 -0.21514730155 -0.165329054 4.9991116524 -4.6732649803 -0.35220080614
          1.2862974405 -0.71154803038 0.71490055323 1.9750165939 -2.5909333229 -0.48534929752
          0 0 0 5.0202918053 -3.5991661549 0.45444145799
          0.18617634475 -0.34267309308 -0.08404546231 1.9483834505 -2.6792871952 -0.24730582535
          3.8188631535 -3.2057209015 0.38507005572 0.58448368311 -0.41598191857 0.15557895601
          3.7874569893 -4.3065643311 -0.59634071589 0.47597303987 -1.1222410202 -0.26542568207
          6.3872961998 -5.0579447746 8.0876225184e-06 3.564375639 -2.2080981731 0.94620937109
          0 0 0 0 0 0
          3.8014497757 -4.3845667839 -0.30073726177 2.5839979649 -1.8068486452 0.78950387239
          5.0039153099 -4.7009835243 4.8835272537e-06 0.41860979795 -1.2258172035 -0.1407661587
          0.94045799971 -0.47875702381 0.55184459686 0.20632736385 -0.3747882247 -2.8240506253e-06
          1.9386870861 -2.7076911926 -2.0363688691e-06 2.8393278122 -2.8937644958 0.31574529409
          1.23620224 -1.3599569798 0.2237393558 3.802372694 -4.4110722542 1.5790590169e-06
          1.8853416443 -1.470793128 0.61921882629 0.41069149971 -1.2560807467 -3.8062776184e-06
          2.6935112476 -4.1019477844 -0.49881145358 6.386267662 -5.0296912193 0.40558004379
          5.0059714317 -3.4905917645 0.89090442657 0 0 0
          7.5880832672 -6.5466246605 -0.72492039204 0 0 0
          0 0 0 0.96722394228 -2.4486413002 -0.39368918538
          2.6920838356 -4.1761512756 -0.25204777718 7.6235423088 -6.6068143845 -0.36430856586
          6.0587329865 -6.2159218788 -0.64612156153 4.9991130829 -4.6732583046 0.35221064091
          0.033380489796 -0.38482794166 -0.1812851727 0 0 0
          3.8068003654 -3.1033298969 0.75549352169 0.66698306799 -0.31202593446 0.37413653731
          0.93043458462 -2.5222804546 -0.19025878608 0.18617808819 -0.3426708281 0.084040254354
          -0.038850359619 -0.43421959877 -0.067383028567 1.948384881 -2.6792814732 0.24730178714
          6.0910611153 -6.2782444954 -0.32372149825 3.801451683 -4.3845601082 0.30074048042
          2.6894974709 -4.2029995918 -1.9213746327e-06 7.6297440529 -6.6281495094 1.0639044376e-05
          0.18288943172 -1.3068724871 -0.32019424438 0.41861191392 -1.2258132696 0.1407584995
          0 0 0 4.7020196915 -5.941192627 -0.56579381227
          1.2931395769 -1.2525405884 0.43534183502 2.8464560509 -2.7962799072 0.62181425095
          0.91991829872 -2.5487234592 -5.0359822126e-06 6.0994467735 -6.2999153137 6.7484625106e-06
          -0.019772905856 -0.49562108517 -5.9281373979e-06 0.16867776215 -1.3439433575 -0.12938827276
          4.7215633392 -6.0042352676 -0.28385549784 6.3507862091 -4.9491066933 0.80127346516
          0 0 0 1.6326401234 -3.9404995441 -0.41596984863
          4.9673652649 -4.5934686661 0.69822818041 0.17390799522 -1.3909721375 -8.055417311e-06
          1.6205949783 -4.014603138 -0.20238342881 4.7266497612 -6.0260772705 2.7476928608e-06
          0.23463054001 -0.21514263749 0.16532444954 2.6920855045 -4.1761441231 0.25204396248
          3.4456856251 -5.722158432 -0.48430162668 7.6235437393 -6.6068067551 0.36432990432
          0.415358603 -2.4890415668 -0.29879379272 1.9750183821 -2.5909221172 0.48534539342
          0 0 0 0.9304369688 -2.5222747326 0.190248698
          3.4528107643 -5.7867050171 -0.24326376617 -0.03884742409 -0.43421733379 0.067371845245
          0.42825767398 -2.5656659603 -0.14308741689 6.0910634995 -6.278236866 0.32373505831
          3.787460804 -4.3065505028 0.59634405375 0.47597497702 -1.1222327948 0.26541808248
          8.7289447784 -8.2431306839 -0.66724318266 0 0 0
          1.60729146 -4.0366215706 -5.7791125982e-06 7.0837430954 -7.9350862503 -0.60417878628
          8.757818222 -8.2911157608 -0.33438637853 0 0 0
          0.062476668507 -0.6248819828 -0.11963411421 7.1105651855 -7.9857678413 -0.30174702406
          3.4525597095 -5.8082790375 -1.4255554106e-06 0.031471561641 -0.66559547186 -0.043328858912
          0.16868078709 -1.3439390659 0.12937244773 0.41892251372 -2.5906729698 -9.4970500868e-06
          4.7215652466 -6.0042271614 0.28386104107 5.5819792747 -7.677479744 -0.53814059496
          -0.01780570671 -1.5122728348 -0.12136199325 8.7646951675 -8.3080825806 1.338441507e-05
          0 0 0 -0.052449088544 -1.5709040165 -0.081427119672
          5.6004343033 -7.7294073105 -0.26885455847 7.1185693741 -8.0034198761 8.8549459178e-06
          0.022781271487 -0.67921280861 -4.9247059906e-06 2.6935141087 -4.1019334793 0.49880775809
          2.2652316093 -5.5424947739 -0.39000201225 7.5880880356 -6.5466094017 0.72494196892
          0 0 0 0.65335154533 -3.851089716 -0.24184380472
          1.6205974817 -4.0145959854 0.20237185061 0.96722662449 -2.4486293793 0.393679142
          6.0587387085 -6.2159061432 0.6461353302 0.033381063491 -0.38482102752 0.18127425015
          0.65287613869 -3.9470062256 -0.13765253127 2.2600102425 -5.6132574081 -0.19690288603
          3.4528129101 -5.7866969109 0.24326094985 0.42826077342 -2.5656599998 0.14306852221
          5.6060094833 -7.7472047806 4.1987054828e-06 -0.055948115885 -1.584887743 -9.7214151538e-06
          4.186563015 -7.4796414375 -0.4701474309 -0.21497860551 -2.6733822823 -0.22733105719
          0.18289168179 -1.3068619967 0.32017827034 8.7578201294 -8.2911071777 0.33441320062
          4.7020249367 -5.9411764145 0.56579947472 0 0 0
          2.2570269108 -5.6329922676 -5.8543469095e-06 0.65026372671 -3.9643933773 -1.0147567991e-05
          4.194685936 -7.5307540894 -0.23413895071 7.1105680466 -7.9857587814 0.30176478624
          -0.24549847841 -2.7306470871 -0.097887821496 0.031471770257 -0.66559296846 0.043319303542
          1.6326434612 -3.9404845238 0.41595822573 4.1970500946 -7.5467228889 -5.9836611399e-07
          5.6004371643 -7.7293982506 0.26886302233 -0.052447799593 -1.5708999634 0.081407532096
          -0.23358477652 -2.7547957897 -1.4996609934e-05 9.793721199 -10.014458656 -0.62764078379
          0 0 0 9.814953804 -10.056493759 -0.31411492825
          3.4456896782 -5.7221412659 0.48429894447 8.04936409 -9.7252550125 -0.57221102715
          0.41536203027 -2.489027977 0.29877474904 0.92335140705 -5.4121260643 -0.26366388798
          0.011332334951 -0.77970993519 -0.054288141429 0.65287917852 -3.9469988346 0.13763220608
          2.2600126266 -5.6132488251 0.19689120352 0 0 0
          8.0695867538 -9.7696323395 -0.28522837162 0.91140806675 -5.4936938286 -0.14310543239
          -0.011494276114 -0.81161081791 -0.021917391568 2.8512237072 -7.3444375992 -0.39585050941
          -0.042947787791 -4.0577602386 -0.28618857265 8.7289505005 -8.2431125641 0.66727018356
          0 0 0 7.0837497711 -7.9350681305 0.60419666767
          9.821105957 -10.071218491 1.6331030565e-05 -0.094036363065 -4.076789856 -0.11241832376
          2.8417532444 -7.3874559402 -0.19938570261 0.062473025173 -0.62487775087 0.11962485313
          6.4132628441 -9.4907827377 -0.51380926371 -0.04920142144 -1.7512142658 -0.086933203042
          0 0 0 4.1946883202 -7.5307450294 0.23413781822
          -0.24549482763 -2.7306408882 0.097858071327 8.075797081 -9.7847557068 1.1190511941e-05
          0.92177343369 -5.5167708397 -1.0420302715e-05 6.4296321869 -9.5351896286 -0.25542548299
          -0.07037665695 -1.795016408 -0.039659004658 -0.01364502497 -0.81939584017 -4.7747876124e-06
          5.5819849968 -7.6774616241 0.53814917803 -0.017808740959 -1.5122659206 0.12134446204
          2.8410391808 -7.4002103806 -5.5301361499e-06 -0.070248924196 -4.1166834831 -1.5850579075e-05
          2.265235424 -5.5424771309 0.38999038935 6.4341101646 -9.5499219894 5.900688393e-06
          -0.077411226928 -1.8122314215 -1.021396929e-05 0.65335559845 -3.8510739803 0.24182334542
          9.814956665 -10.056484222 0.31414759159 4.8766307831 -9.3317089081 -0.45752868056
          0 0 0 -0.10017727315 -2.8859784603 -0.11115820706
          4.8871498108 -9.3711566925 -0.22671799362 8.0695896149 -9.7696228027 0.28525075316
          -0.011494647712 -0.81160897017 0.021908229217 0.91141104698 -5.4936852455 0.14308464527
          -0.11782274395 -2.940625906 -0.057348899543 4.1865682602 -7.4796228409 0.47014647722
          1.3634278774 -7.228705883 -0.35914719105 2.8417561054 -7.3874464035 0.19937473536
          -0.21497501433 -2.673366785 0.22730121017 -0.094032391906 -4.0767822266 0.11238699406
          0.2102882266 -5.6214003563 -0.38679221272 1.3333176374 -7.259083271 -0.17009887099
          4.8890733719 -9.3843193054 5.1740607887e-07 6.4296355247 -9.5351791382 0.25543731451
          -0.070377327502 -1.7950129509 0.039638854563 0.18340922892 -5.605711937 -0.14923226833
          -0.12772651017 -2.9525878429 -1.5221918147e-05 10.808841705 -11.848631859 -0.60404616594
          0 0 0 -0.012879732996 -0.87488090992 -0.017848711461
          1.3263589144 -7.2704634666 -1.049486491e-05 3.4125702381 -9.2472467422 -0.41446024179
          8.9685783386 -11.570044518 -0.54888021946 9.7937278748 -10.014437675 0.62767356634
          0 0 0 0 0 0
          0.19505545497 -5.6429719925 -1.6498965124e-05 -0.22240976989 -4.1958942413 -0.10550090671
          10.822897911 -11.889980316 -0.30189847946 3.4138875008 -9.2748031616 -0.20573942363
          8.9827184677 -11.613033295 -0.27307596803 8.0493707657 -9.7252349854 0.57223343849
          -0.021891646087 -0.8992831707 -0.0062154508196 0.92335575819 -5.4121084213 0.26364323497
          0.011327295564 -0.77970731258 0.054278686643 -0.2292778343 -4.2560997009 -0.11989089102
          4.8871531487 -9.3711462021 0.2267191112 -0.11782304943 -2.9406208992 0.057318728417
          7.1965641975 -11.350765228 -0.48924413323 2.8512282372 -7.3444185257 0.39583978057
          -0.042943373322 -4.0577435493 0.28615739942 0 0 0
          -0.058975238353 -1.8816094398 -0.030649919063 10.827953339 -11.904147148 1.9474078726e-05
          -0.02388339676 -0.90650862455 -4.4541843636e-06 3.4151508808 -9.2871713638 -4.9300369938e-06
          7.2092719078 -11.391840935 -0.2419847548 6.413269043 -9.4907617569 0.51382124424
          8.9871101379 -11.626853943 1.3718926311e-05 -0.049207191914 -1.7512089014 0.086913794279
          -0.17494979501 -4.2680196762 -1.9530407371e-05 -0.069868199527 -1.9177101851 -0.014619005844
          1.3333214521 -7.2590742111 0.17007796466 0.18341374397 -5.6057038307 0.1491997391
          0.54443174601 -7.3617491722 -0.39768373966 7.2107048035 -11.403283119 7.8030143413e-06
          -0.073531605303 -1.9296737909 -9.8556038211e-06 0.56397020817 -7.3709406853 -0.17656373978
          5.516418457 -11.214840889 -0.43153482676 0 0 0
          -0.13183052838 -3.045589447 -0.042892549187 10.822900772 -11.889968872 0.30193740129
          -0.021892581135 -0.89928209782 0.0062067452818 3.4138906002 -9.2747926712 0.20572967827
          5.5263857841 -11.249445915 -0.21126243472 4.8766365051 -9.3316888809 0.45752999187
          8.9827213287 -11.613021851 0.27310338616 2.0028657913 -9.171579361 -0.41355505586
          -0.49175462127 -5.8806867599 -0.40467581153 -0.10018220544 -2.8859701157 0.11113037914
          -0.14277608693 -3.0901274681 -0.024762440473 -0.22927573323 -4.256093502 0.11985281855
          1.9788191319 -9.1854486465 -0.19390922785 -0.48349204659 -5.8614144325 -0.17301091552
          0.56063240767 -7.387814045 -1.6777326891e-05 1.3634334803 -7.2286868095 0.35912668705
          7.2092752457 -11.391830444 0.24200040102 0.21029354632 -5.6213817596 0.38675993681
          5.5227603912 -11.260111809 1.8054632847e-06 -0.069870166481 -1.9177081585 0.014599411748
          -0.14109398425 -3.1056947708 -1.5399022232e-05 1.9514255524 -9.1862201691 -1.0412747542e-05
          -0.092917814851 -5.766102314 -2.1953892428e-05 -0.22986075282 -4.4143891335 -0.077363312244
          3.9579789639 -11.146561623 -0.39630365372 10.808847427 -11.848608971 0.60408502817
          0 0 0 0.56397473812 -7.3709311485 0.17653042078
          -0.012885539792 -0.87487947941 0.017839279026 -0.23424483836 -4.4629864693 -0.039176326245
          3.4125754833 -9.2472257614 0.41445079446 8.968585968 -11.570021629 0.5489076376
          3.964782238 -11.172383308 -0.1938752979 11.800816536 -13.750292778 -0.59364229441
          0 0 0 -0.22241157293 -4.1958837509 0.10546654463
          11.808578491 -13.794403076 -0.29620146751 -0.034272026271 -0.92027378082 0.013483376242
          9.8617715836 -13.472993851 -0.53324747086 5.526389122 -11.249435425 0.21126620471
          0 0 0 -0.14277802408 -3.0901246071 0.024732263759
          9.870267868 -13.518258095 -0.26524809003 -0.032605785877 -0.94107061625 0.006008154247
          1.9788236618 -9.1854391098 0.19388844073 -0.48348528147 -5.8614077568 0.17296528816
          7.1965708733 -11.350743294 0.48925986886 -0.21554587781 -4.4549536705 -2.0309784304e-05
          3.9585487843 -11.183425903 -4.0930731302e-06 -0.058983419091 -1.881606698 0.030630875379
          0.82701140642 -9.1546888351 -0.31348359585 -0.081998154521 -1.954724431 0.012519064359
          7.9487309456 -13.248557091 -0.46835714579 -0.25611525774 -7.6211910248 -0.38826879859
          11.812186241 -13.808987617 2.2768192139e-05 0 0 0
          0.84490120411 -9.1965789795 -0.17653769255 9.8733577728 -13.532385826 1.6361354938e-05
          -0.03305143863 -0.94703578949 -4.0736285882e-06 7.9570593834 -13.289716721 -0.23031793535
          -0.083121672273 -1.9856784344 0.0071645723656 -0.24955609441 -7.6264986992 -0.17624203861
          0.54443788528 -7.3617286682 0.39765039086 0.85272997618 -9.196105957 -1.6304837118e-05
          -0.28687781096 -5.9512071609 -0.074829265475 -0.23424580693 -4.4629821777 0.039136432111
          2.5704188347 -11.093183517 -0.37122172117 7.9574394226 -13.297759056 9.8240952866e-06
          5.5164246559 -11.214818954 0.43153887987 3.9647858143 -11.172372818 0.19386725128
          -0.22163572907 -7.6287932396 -2.3599865017e-05 -0.083121880889 -1.9963035583 -9.2890704764e-06
          -0.1318384856 -3.0455851555 0.042863860726 11.808579445 -13.794390678 0.29624691606
          6.1160621643 -13.119647026 -0.39611685276 -0.28195887804 -6.0228743553 -0.068843126297
          -0.13920387626 -3.1403720379 0.0087772477418 2.5715284348 -11.114064217 -0.18512915075
          2.0028729439 -9.1715583801 0.41353440285 -0.49174928665 -5.880666256 0.40462994576
          0 0 0 -0.141890347 -3.1786108017 0.005396457389
          9.8702697754 -13.518245697 0.26528075337 -0.032607045025 -0.94107019901 -0.0060161999427
          6.1050138474 -13.147953987 -0.19286358356 -0.32686662674 -6.0110487938 -2.4388647944e-05
          2.5624363422 -11.119738579 -9.9277685877e-06 0.84490537643 -9.1965684891 0.176505059
          6.0823831558 -13.148470879 3.272532922e-06 -0.14144232869 -3.1893372536 -1.479344246e-05
          7.9570622444 -13.289705276 0.23033760488 -0.083124294877 -1.9856775999 -0.0071831224486
          -0.24955098331 -7.6264896393 0.17619501054 -0.22986626625 -4.4143819809 0.077325507998
          3.9579851627 -11.146539688 0.39629599452 4.4673848152 -13.074442863 -0.35542291403
          11.800822258 -13.750267982 0.59368747473 0 0 0
          -0.19418118894 -4.4981327057 0.0089096128941 -0.034278202802 -0.9202734828 -0.013492397964
          9.8617773056 -13.472969055 0.53327995539 -0.28195884824 -6.0228681564 0.068795017898
          2.5715327263 -11.114053726 0.18510945141 4.4538111687 -13.093907356 -0.16766762733
          0.010163337924 -9.4259796143 -0.39996543527 -0.20001974702 -4.5443868637 0.0016953300219
          -0.14189338684 -3.1786093712 -0.0054256995209 6.105017662 -13.147942543 0.19287022948
          -0.0041361311451 -9.4046020508 -0.16273844242 1.130120039 -11.016113281 -0.32685685158
          -0.42777776718 -7.6196022034 -0.050516467541 12.788550377 -15.738088608 -0.59155094624
          0 0 0 10.745550156 -15.457751274 -0.52658390999
          0.82701814175 -9.1546669006 0.31345069408 -0.082007229328 -1.9547237158 -0.01253745053
          7.9487376213 -13.248533249 0.46837681532 -0.42700397968 -7.7104201317 -0.11656007916
          1.1274954081 -11.041776657 -0.16022114456 -0.2561083734 -7.6211695671 0.38822200894
          12.79155159 -15.785256386 -0.29491868615 0 0 0
          -0.20534928143 -4.5586333275 -1.9957951736e-05 4.426129818 -13.101228714 -3.1350796235e-06
          -0.056125089526 -0.9306511879 0.041056480259 10.74877739 -15.505851746 -0.26242375374
          -0.044652178884 -0.94984728098 0.017148010433 0.028985070065 -9.4331493378 -2.3270962629e-05
          8.703040123 -15.216575623 -0.45726358891 -0.34313368797 -7.7419342995 -2.7288684578e-05
          1.1350269318 -11.055604935 -1.5837496903e-05 12.793609619 -15.800621033 2.609366129e-05
          0 0 0 -0.10092250258 -1.9692726135 0.052256397903
          8.7078046799 -15.262516022 -0.2261197418 10.750463486 -15.520997047 1.8961594833e-05
          -0.28688079119 -5.9511976242 0.074784584343 2.5704257488 -11.093162537 0.37120223045
          -0.044047757983 -0.95531010628 -3.6729720705e-06 -0.093715213239 -1.9978382587 0.027153821662
          6.11606884 -13.119623184 0.3961238265 -0.1392134726 -3.1403708458 -0.0088054342195
          -0.25983244181 -6.0350041389 0.0060628158972 3.0252430439 -13.072775841 -0.34918487072
          -0.20002239943 -4.5443849564 -0.0017346171662 4.4538154602 -13.093896866 0.16766159236
          -0.26941657066 -6.091550827 -0.00017245199706 3.0241253376 -13.07478714 -0.16766019166
          -0.0041307713836 -9.404592514 0.16269248724 8.7111377716 -15.274725914 1.1806705515e-05
          -0.091078318655 -2.007062912 -8.5402489276e-06 6.6632008553 -15.053730011 -0.38741803169
          -0.42700114846 -7.710413456 0.11650632322 1.127499938 -11.041766167 0.16018980742
          12.791552544 -15.785242081 0.29497072101 0 0 0
          -0.1382073462 -3.1512672901 0.058518618345 6.6371264458 -15.080244064 -0.19142480195
          10.748779297 -15.505838394 0.26246154308 -0.13553671539 -3.1867637634 0.03025601618
          -0.26096859574 -6.1131539345 -2.4444088922e-05 3.0196444988 -13.0785532 -9.1919255283e-06
          -0.044653557241 -0.94984745979 -0.01715532504 8.7078065872 -15.262503624 0.22614331543
          6.6048913002 -15.074769974 4.9329701142e-06 -0.1352070719 -3.19840312 -1.3783431314e-05
          4.4673919678 -13.074420929 0.35541751981 0.29475817084 -11.25378418 -0.42779824138
          -0.093718089163 -1.997838378 -0.027170963585 -0.19418972731 -4.4981303215 -0.0089469403028
          -0.79632663727 -9.6991291046 -0.4310567081 0.31013169885 -11.234794617 -0.16570934653
          0.010171483271 -9.4259576797 0.39991998672 -0.75972592831 -9.6668548584 -0.2088085115
          -0.26941806078 -6.091547966 0.00012454111129 3.0241296291 -13.074776649 0.16764214635
          1.1301276684 -11.0160923 0.32682651281 -0.42777732015 -7.6195907593 0.050466947258
          -0.16948372126 -4.504527092 0.060975156724 4.9031190872 -15.030786514 -0.33406060934
          12.788553238 -15.738060951 0.59160250425 0 0 0
          10.745554924 -15.457723618 0.52662134171 -0.17015860975 -4.5450539589 0.032151319087
          0.30724066496 -11.257882118 -2.2310619897e-05 -0.35210731626 -7.7824759483 -0.027029877529
          1.6577959061 -13.063445091 -0.38446369767 4.8370232582 -15.026751518 -0.16535834968
          -0.056131165475 -0.93065190315 -0.041064888239 -0.28394716978 -9.4960165024 -2.8046757507e-05
          6.6371297836 -15.08023262 0.19143462181 -0.13554020226 -3.1867640018 -0.030283322558
          1.6079216003 -13.036276817 -0.17319941521 -0.34835857153 -7.8400859833 -0.013567341492
          8.7030448914 -15.21654892 0.45728698373 -0.16977573931 -4.5592169762 -1.8765920686e-05
          4.7431020737 -15.007590294 -2.0254062747e-06 -0.10093167424 -1.9692736864 -0.052273597568
          1.5487886667 -13.007189751 -1.4723713321e-05 13.777581215 -17.830320358 -0.59233003855
          0 0 0 -0.32447120547 -7.8306522369 -2.7937710911e-05
          13.777774811 -17.878387451 -0.29553681612 0 0 0
          0.31013765931 -11.234784126 0.16566544771 11.629128456 -17.548065186 -0.52714550495
          -0.25983864069 -6.0350008011 -0.0061080702581 3.0252504349 -13.07275486 0.34916767478
          -0.076290629804 -0.90873533487 0.067921496928 -0.75972038507 -9.6668453217 0.20874966681
          11.629197121 -17.596868515 -0.26338851452 -0.055374141783 -0.92774325609 0.028295649216
          6.6632070541 -15.053706169 0.38742786646 13.77823925 -17.894182205 2.9230594009e-05
          -0.1701618731 -4.5450539589 -0.032188333571 9.4705667496 -17.294904709 -0.46063274145
          -0.11745035648 -1.9253886938 0.091901339591 4.8370280266 -15.026741028 0.16535450518
          0 0 0 3.461669445 -15.030637741 -0.35283732414
          -0.19212472439 -6.0465416908 0.058920755982 -0.13821741939 -3.1512687206 -0.058545179665
          -0.1025480479 -1.9535809755 0.04681609571 9.4694433212 -17.346021652 -0.23045018315
          11.630058289 -17.61302948 2.1260009817e-05 1.6079286337 -13.036268234 0.17317023873
          -0.19377562404 -6.0893754959 0.030954707414 3.4501614571 -15.020904541 -0.1774071455
          -0.34835854173 -7.8400821686 0.01351245027 -0.053917147219 -0.93281835318 -3.2823977563e-06
          -0.54964351654 -11.522418022 -0.40665975213 9.4704380035 -17.364492416 1.3438665519e-05
          0.29476743937 -11.253762245 0.42775517702 -0.097544237971 -1.9625742435 -7.6995820564e-06
          -0.19399876893 -6.1027998924 -2.3169828637e-05 -0.50112915039 -11.529364586 -0.17417623103
          3.4348962307 -15.013790131 -8.1713051259e-06 -0.79631817341 -9.6991071701 0.43099814653
          13.777773857 -17.878370285 0.29559502006 7.2636165619 -17.075956345 -0.39428111911
          -0.3875169754 -9.6371326447 -0.0088127925992 0 0 0
          -0.1388476193 -3.0865244865 0.10515475273 0.57222741842 -13.123385429 -0.33376157284
          -0.1312392056 -3.120916605 0.054529089481 7.2657828331 -17.121488571 -0.19946700335
          11.629197121 -17.596853256 0.26343080401 -0.37184664607 -9.7175741196 -0.04846118018
          0.60480976105 -13.136997223 -0.18347470462 -0.055375482887 -0.92774391174 -0.028302218765
          -0.16949309409 -4.5045289993 -0.061010655016 4.9031267166 -15.03076458 0.3340575695
          -0.47820493579 -11.501760483 -2.8226051654e-05 -0.35210973024 -7.7824702263 0.026977948844
          1.6578071117 -13.063426018 0.38443532586 7.2708730698 -17.135292053 6.1110722527e-06
          9.4694442749 -17.346006393 0.23047691584 -0.42055732012 -9.6986083984 -3.0426605008e-05
          -0.10255084187 -1.9535820484 -0.046831585467 -0.12880729139 -3.1318216324 -1.2466081898e-05
          -0.19377805293 -6.0893750191 -0.031000325456 3.4501662254 -15.020895004 0.17739106715
          0.60803675652 -13.114712715 -2.0194980607e-05 2.1813285351 -14.995925903 -0.35485082865
          -0.19433087111 -7.7677907944 0.059153195471 2.1683850288 -14.991131783 -0.17524760962
          -0.19894857705 -7.8143191338 0.025963081047 13.777582169 -17.830289841 0.59238755703
          0 0 0 -0.50112426281 -11.529355049 0.17411996424
          -0.14155900478 -4.42456007 0.11202916503 5.2565226555 -16.961774826 -0.3316077888
          -0.13998164237 -4.4617996216 0.05762636289 11.629131317 -17.548034668 0.5271871686
          -0.076296299696 -0.90873676538 -0.067929148674 5.194627285 -16.959953308 -0.18886016309
          7.2657837868 -17.12147522 0.19947913289 -0.37184539437 -9.7175683975 0.048401474953
          -0.13124263287 -3.1209180355 -0.054553832859 0.60481524467 -13.136987686 0.18343469501
          2.1420695782 -14.975111961 -1.3555880287e-05 -0.20307730138 -7.8279976845 -2.6816751415e-05
          9.4705686569 -17.294876099 0.4606589973 -0.11745899171 -1.9253911972 -0.09191699326
          3.4616775513 -15.03061676 0.35282206535 -0.14092624187 -4.4717884064 -1.6981168301e-05
          -0.19213216007 -6.0465431213 -0.058964189142 5.0704755783 -16.925884247 -9.1386976919e-07
          14.765257835 -20.033016205 -0.59208410978 0 0 0
          -0.54963362217 -11.522396088 0.40660393238 2.1683914661 -14.991123199 0.17522078753
          0 0 0 12.514169693 -19.751068115 -0.52990633249
          -0.57643997669 -11.467319489 0.025951046497 -0.19894981384 -7.8143181801 -0.02601576969
          -0.091406583786 -0.85240268707 0.096728295088 -0.24731242657 -13.366311073 -0.35429158807
          14.764826775 -20.079563141 -0.2958368063 7.2636189461 -17.075929642 0.39429309964
          12.512863159 -19.798143387 -0.26537564397 -0.061350077391 -0.87178993225 0.039953868836
          -0.38751670718 -9.6371240616 0.0087572485209 -0.56754761934 -11.584765434 -0.085425913334
          -0.13885718584 -3.0865280628 -0.10517895222 3.8977491856 -16.925640106 -0.3474522233
          -0.13998489082 -4.4618010521 -0.057659931481 0.57223683596 -13.123366356 0.33372113109
          -0.13070833683 -5.9515042305 0.10904021561 5.194633007 -16.959943771 0.18885813653
          -0.25201451778 -13.376718521 -0.12765643001 -0.1332193464 -5.9888701439 0.058648735285
          3.9178481102 -16.928564072 -0.15939696133 10.255299568 -19.491676331 -0.46935385466
          14.764350891 -20.095056534 3.1873540138e-05 -0.12854738533 -1.8249684572 0.13187381625
          0 0 0 10.252621651 -19.542438507 -0.23562186956
          -0.10580790788 -1.8535161018 0.067654557526 12.512678146 -19.814489365 2.2921523851e-05
          0.86161977053 -14.927546501 -0.31416934729 -0.4675051868 -11.61301136 -3.0630275432e-05
          -0.24461497366 -13.374446869 -2.5852225008e-05 -0.20739503205 -9.6240119934 0.048355385661
          -0.059013530612 -0.87673950195 -2.9230996006e-06 0.84641122818 -14.945048332 -0.13731378317
          3.9336462021 -16.929664612 -7.6957012425e-06 -0.20724752545 -9.6832714081 0.032859165221
          -0.13192214072 -5.9986047745 -2.1028699848e-05 2.1813380718 -14.99590683 0.35482433438
          10.252898216 -19.560964584 1.428858468e-05 -0.19433575869 -7.7677912712 -0.059203036129
          -0.098342843354 -1.861847043 -6.8389913395e-06 7.9485116005 -19.241987228 -0.39910584688
          14.764823914 -20.079545975 0.29590022564 0.82640177011 -14.957355499 -1.8653807274e-05
          -0.13676092029 -2.9509077072 0.15516905487 -0.14156796038 -4.4245648384 -0.11206154525
          -0.19712771475 -9.7096452713 -2.955893433e-05 5.2565302849 -16.961753845 0.33160659671
          0 0 0 7.9614453316 -19.301275253 -0.2031763643
          -0.12474188209 -2.9852128029 0.078802227974 12.512861252 -19.798126221 0.26542118192
          -0.56754547358 -11.584759712 0.085364766419 -0.25200939178 -13.376709938 0.12760531902
          -0.06135122478 -0.87179094553 -0.039959717542 3.9178533554 -16.928554535 0.15938232839
          -0.1332218945 -5.9888720512 -0.058690138161 10.252619743 -19.542423248 0.23565016687
          7.9808683395 -19.327827454 6.1951468524e-06 2.6278223991 -16.91626358 -0.33008405566
          -0.09472425282 -7.6532297134 0.10117644072 -0.12060390413 -2.9959495068 -1.1000919585e-05
          -0.10581031442 -1.85351789 -0.06766833365 -0.093004837632 -7.6933517456 0.056711368263
          0.84641748667 -14.945040703 0.1372769177 2.6061131954 -16.892072678 -0.14543515444